water                                                                   
SP        RHF                                                         STO-3G              
Number of atoms                            I                3
Charge                                     I                0
Multiplicity                               I                1
Number of electrons                        I               10
Number of alpha electrons                  I                5
Number of beta electrons                   I                5
Number of basis functions                  I                7
Number of independant functions            I                7
Number of point charges in /Mol/           I                0
Number of translation vectors              I                0
Info1-9                                    I   N=           9
          10          10           0           0           0         110
           1           1           2
Num ILSW                                   I              100
ILSW                                       I   N=         100
           0           0           0           0           2           0
           0           0           0           0           0     1000000
           0           0          -1           0           0           0
           0     1000000           1           0           0           0
           1           0           0           0     1000000           0
           0           0      100000           0          -1           0
           0           0           0           0           0           0
           0           0           0           1           0           0
           0           0           1     1000000     1000000           0
           0           0           0           0           0           0
           0           0           0           0           0           0
           0           0           0           0           0           0
           0           0           0           0           0           0
           0           0           0           0           0           0
           0           0           0           0           0           0
           0           0           0           0           0           0
           0           0           0           0
Number of contracted shells                I                4
Highest angular momentum                   I                1
Largest degree of contraction              I                3
Number of primitive shells                 I               12
Pure/Cartesian d shells                    I                0
Pure/Cartesian f shells                    I                0
Virial Ratio                               R      2.005015397070673E+00
SCF Energy                                 R     -7.496293410278400E+01
Total Energy                               R     -7.496293410278400E+01
RMS Density                                R      1.529838551781902E-04
Atomic numbers                             I   N=           3
           8           1           1
Nuclear charges                            R   N=           3
  8.00000000E+00  1.00000000E+00  1.00000000E+00
Current cartesian coordinates              R   N=           9
  6.82492065E-34  1.22946840E-17  2.21481338E-01  0.00000000E+00  1.43023556E+00
 -8.85925352E-01 -1.75153340E-16 -1.43023556E+00 -8.85925352E-01
Int Atom Types                             I   N=           3
           0           0           0
Force Field                                I                0
MM charges                                 R   N=           3
  0.00000000E+00  0.00000000E+00  0.00000000E+00
Integer atomic weights                     I   N=           3
          16           1           1
Real atomic weights                        R   N=           3
  1.59949146E+01  1.00782504E+00  1.00782504E+00
Atom residue info                          I   N=           3
           0           0           0
Atom fragment info                         I   N=           3
           0           0           0
Atom residue num                           I   N=           3
           0           0           0
Nuclear spins                              I   N=           3
           0           1           1
Nuclear ZEff                               R   N=           3
 -5.60000000E+00 -1.00000000E+00 -1.00000000E+00
Nuclear QMom                               R   N=           3
  0.00000000E+00  0.00000000E+00  0.00000000E+00
Nuclear GFac                               R   N=           3
  0.00000000E+00  2.79284600E+00  2.79284600E+00
MicOpt                                     I   N=           3
          -1          -1          -1
Constraint Structure                       R   N=           9
  6.82492065E-34  1.22946840E-17  2.21481338E-01  0.00000000E+00  1.43023556E+00
 -8.85925352E-01 -1.75153340E-16 -1.43023556E+00 -8.85925352E-01
ONIOM Charges                              I   N=          16
           0           0           0           0           0           0
           0           0           0           0           0           0
           0           0           0           0
ONIOM Multiplicities                       I   N=          16
           1           0           0           0           0           0
           0           0           0           0           0           0
           0           0           0           0
Atom Layers                                I   N=           3
           1           1           1
Atom Modifiers                             I   N=           3
           0           0           0
Int Atom Modified Types                    I   N=           3
           0           0           0
Link Atoms                                 I   N=           3
           0           0           0
Atom Modified MM Charges                   R   N=           3
  0.00000000E+00  0.00000000E+00  0.00000000E+00
Link Distances                             R   N=          12
  0.00000000E+00  0.00000000E+00  0.00000000E+00  0.00000000E+00  0.00000000E+00
  0.00000000E+00  0.00000000E+00  0.00000000E+00  0.00000000E+00  0.00000000E+00
  0.00000000E+00  0.00000000E+00
MxBond                                     I                2
NBond                                      I   N=           3
           2           1           1
IBond                                      I   N=           6
           2           3           1           0           1           0
RBond                                      R   N=           6
  1.00000000E+00  1.00000000E+00  1.00000000E+00  0.00000000E+00  1.00000000E+00
  0.00000000E+00
Shell types                                I   N=           4
           0          -1           0           0
Number of primitives per shell             I   N=           4
           3           3           3           3
Shell to atom map                          I   N=           4
           1           1           2           3
Primitive exponents                        R   N=          12
  1.30709321E+02  2.38088661E+01  6.44360831E+00  5.03315132E+00  1.16959612E+00
  3.80388960E-01  3.42525091E+00  6.23913730E-01  1.68855404E-01  3.42525091E+00
  6.23913730E-01  1.68855404E-01
Contraction coefficients                   R   N=          12
  1.54328967E-01  5.35328142E-01  4.44634542E-01 -9.99672292E-02  3.99512826E-01
  7.00115469E-01  1.54328967E-01  5.35328142E-01  4.44634542E-01  1.54328967E-01
  5.35328142E-01  4.44634542E-01
P(S=P) Contraction coefficients            R   N=          12
  0.00000000E+00  0.00000000E+00  0.00000000E+00  1.55916275E-01  6.07683719E-01
  3.91957393E-01  0.00000000E+00  0.00000000E+00  0.00000000E+00  0.00000000E+00
  0.00000000E+00  0.00000000E+00
Coordinates of each shell                  R   N=          12
  6.82492065E-34  1.22946840E-17  2.21481338E-01  6.82492065E-34  1.22946840E-17
  2.21481338E-01  0.00000000E+00  1.43023556E+00 -8.85925352E-01 -1.75153340E-16
 -1.43023556E+00 -8.85925352E-01
Alpha Orbital Energies                     R   N=           7
 -2.02417138E+01 -1.26840379E+00 -6.17854350E-01 -4.53057778E-01 -3.91228494E-01
  6.05692047E-01  7.42385267E-01
Alpha MO coefficients                      R   N=          49
  9.94129417E-01  2.65625324E-02  0.00000000E+00  0.00000000E+00 -4.34685395E-03
 -5.97201446E-03 -5.97201446E-03 -2.32781616E-01  8.33472129E-01  0.00000000E+00
  0.00000000E+00 -1.29638381E-01  1.58726236E-01  1.58726236E-01  0.00000000E+00
  0.00000000E+00  0.00000000E+00  6.06412927E-01  0.00000000E+00  4.45062745E-01
 -4.45062745E-01 -1.03179877E-01  5.36842758E-01  0.00000000E+00  0.00000000E+00
  7.76762174E-01 -2.77756005E-01 -2.77756005E-01  0.00000000E+00  0.00000000E+00
  1.00000000E+00  0.00000000E+00  0.00000000E+00  0.00000000E+00  0.00000000E+00
 -1.32394599E-01  8.84778982E-01  0.00000000E+00  0.00000000E+00 -7.42337367E-01
 -7.97171483E-01 -7.97171483E-01  0.00000000E+00  0.00000000E+00  0.00000000E+00
  9.90581233E-01  0.00000000E+00 -8.38687566E-01  8.38687566E-01
Total SCF Density                          R   N=          28
  2.10625333E+00 -4.46003528E-01  1.96716301E+00  1.33835502E-33 -7.61333868E-33
  2.00000000E+00 -6.02741517E-18  3.42874292E-17 -4.93038066E-32  7.35473277E-01
 -1.08580259E-01  6.17667414E-01  2.78521030E-32  2.80273405E-17  1.24036896E+00
 -2.84533489E-02 -3.39520751E-02  1.84889275E-32  5.39783604E-01 -4.72602821E-01
  6.00917856E-01 -2.84533489E-02 -3.39520751E-02 -6.16297582E-33 -5.39783604E-01
 -4.72602821E-01 -1.91405532E-01  6.00917856E-01
Cartesian Gradient                         R   N=           9
  0.00000000E+00  0.00000000E+00  0.00000000E+00  0.00000000E+00  0.00000000E+00
  0.00000000E+00  0.00000000E+00  0.00000000E+00  0.00000000E+00
Dipole Moment                              R   N=           3
 -3.75559067E-17  5.55111512E-17 -6.79093867E-01
QEq coupling tensors                       R   N=          18
  2.66187343E+00  1.20737450E-16 -2.34772905E+00  1.05887544E-16  7.49400542E-16
 -3.14144379E-01  2.86889195E-01  3.75843322E-18 -2.64868999E-01  2.64444877E-18
  3.45030219E-01 -2.20201964E-02  2.86889195E-01 -1.25048892E-16 -2.64868999E-01
 -9.18163955E-17 -3.45030219E-01 -2.20201964E-02
Mulliken Charges                           R   N=           3
 -3.66334797E-01  1.83167399E-01  1.83167399E-01
