----- GAMESS execution script -----
This job is running on host kolmakov.sam.pitt.edu
under operating system Darwin at Thu Aug 30 15:18:03 EDT 2012
Available scratch disk space (Kbyte units) at beginning of the job is
Filesystem   1024-blocks      Used Available Capacity  Mounted on
/dev/disk0s2   731734976 120153064 611325912    17%    /

 Distributed Data Interface kickoff program.
 Initiating 1 compute processes on 1 nodes to run the following command:
 /Users/albert/Development/gamess/master/gamess.master.x rhf 

          ******************************************************
          *         GAMESS VERSION = 11 AUG 2011 (R1)          *
          *             FROM IOWA STATE UNIVERSITY             *
          * M.W.SCHMIDT, K.K.BALDRIDGE, J.A.BOATZ, S.T.ELBERT, *
          *   M.S.GORDON, J.H.JENSEN, S.KOSEKI, N.MATSUNAGA,   *
          *          K.A.NGUYEN, S.J.SU, T.L.WINDUS,           *
          *       TOGETHER WITH M.DUPUIS, J.A.MONTGOMERY       *
          *         J.COMPUT.CHEM.  14, 1347-1363(1993)        *
          **************** 64 BIT APPLE VERSION ****************

  SINCE 1993, STUDENTS AND POSTDOCS WORKING AT IOWA STATE UNIVERSITY
  AND ALSO IN THEIR VARIOUS JOBS AFTER LEAVING ISU HAVE MADE IMPORTANT
  CONTRIBUTIONS TO THE CODE:
     IVANA ADAMOVIC, CHRISTINE AIKENS, YURI ALEXEEV, POOJA ARORA,
     ANDREY ASADCHEV, ROB BELL, PRADIPTA BANDYOPADHYAY, JONATHAN BENTZ,
     BRETT BODE, GALINA CHABAN, WEI CHEN, CHEOL HO CHOI, PAUL DAY,
     ALBERT DEFUSCO, TIM DUDLEY, DMITRI FEDOROV, GRAHAM FLETCHER,
     MARK FREITAG, KURT GLAESEMANN, DAN KEMP, GRANT MERRILL,
     NORIYUKI MINEZAWA, JONATHAN MULLIN, TAKESHI NAGATA,
     SEAN NEDD, HEATHER NETZLOFF, BOSILJKA NJEGIC, RYAN OLSON, MIKE PAK,
     JIM SHOEMAKER, LYUDMILA SLIPCHENKO, SAROM SOK, JIE SONG,
     TETSUYA TAKETSUGU, SIMON WEBB, SOOHAENG YOO, FEDERICO ZAHARIEV

  ADDITIONAL CODE HAS BEEN PROVIDED BY COLLABORATORS IN OTHER GROUPS:
     IOWA STATE UNIVERSITY:
          JOE IVANIC, LAIMUTIS BYTAUTAS, KLAUS RUEDENBERG
     UNIVERSITY OF TOKYO: KIMIHIKO HIRAO, TAKAHITO NAKAJIMA,
          TAKAO TSUNEDA, MUNEAKI KAMIYA, SUSUMU YANAGISAWA,
          KIYOSHI YAGI, MAHITO CHIBA, SEIKEN TOKURA, NAOAKI KAWAKAMI
     UNIVERSITY OF AARHUS: FRANK JENSEN
     UNIVERSITY OF IOWA: VISVALDAS KAIRYS, HUI LI
     NATIONAL INST. OF STANDARDS AND TECHNOLOGY: WALT STEVENS, DAVID GARMER
     UNIVERSITY OF PISA: BENEDETTA MENNUCCI, JACOPO TOMASI
     UNIVERSITY OF MEMPHIS: HENRY KURTZ, PRAKASHAN KORAMBATH
     UNIVERSITY OF ALBERTA: TOBY ZENG, MARIUSZ KLOBUKOWSKI
     UNIVERSITY OF NEW ENGLAND: MARK SPACKMAN
     MIE UNIVERSITY: HIROAKI UMEDA
     MICHIGAN STATE UNIVERSITY:
          KAROL KOWALSKI, MARTA WLOCH, JEFFREY GOUR, JESSE LUTZ, PIOTR PIECUCH
     UNIVERSITY OF SILESIA: MONIKA MUSIAL, STANISLAW KUCHARSKI
     FACULTES UNIVERSITAIRES NOTRE-DAME DE LA PAIX:
          OLIVIER QUINET, BENOIT CHAMPAGNE
     UNIVERSITY OF CALIFORNIA - SANTA BARBARA: BERNARD KIRTMAN
     INSTITUTE FOR MOLECULAR SCIENCE:
          KAZUYA ISHIMURA, MICHIO KATOUDA, AND SHIGERU NAGASE
     UNIVERSITY OF NOTRE DAME: DAN CHIPMAN
     KYUSHU UNIVERSITY:
          HARUYUKI NAKANO,
          FENG LONG GU, JACEK KORCHOWIEC, MARCIN MAKOWSKI, AND YURIKO AOKI,
          HIROTOSHI MORI AND EISAKU MIYOSHI
     PENNSYLVANIA STATE UNIVERSITY:
          TZVETELIN IORDANOV, CHET SWALINA, JONATHAN SKONE,
          SHARON HAMMES-SCHIFFER
     WASEDA UNIVERSITY:
          MASATO KOBAYASHI, TOMOKO AKAMA, TSUGUKI TOUMA,
          TAKESHI YOSHIKAWA, YASUHIRO IKABATA, HIROMI NAKAI
     UNIVERSITY OF NEBRASKA:
          PEIFENG SU, DEJUN SI, NANDUN THELLAMUREGE, YALI WANG, HUI LI
     UNIVERSITY OF ZURICH:
          ROBERTO PEVERATI, KIM BALDRIDGE
     N. COPERNICUS UNIVERSITY AND JACKSON STATE UNIVERSITY:
          MARIA BARYSZ

 EXECUTION OF GAMESS BEGUN Thu Aug 30 15:18:03 2012

            ECHO OF THE FIRST FEW INPUT CARDS -
 INPUT CARD> $contrl coord=zmt nprint=9 $end                                                
 INPUT CARD> $scf dirscf=.t. $end                                                           
 INPUT CARD> $basis gbasis=sto ngauss=3 $end                                                
 INPUT CARD> $data                                                                          
 INPUT CARD>water                                                                           
 INPUT CARD>c1                                                                              
 INPUT CARD>O                                                                               
 INPUT CARD>H 1 0.9572                                                                      
 INPUT CARD>H 1 0.9572 2 104.5                                                              
 INPUT CARD>                                                                                
 INPUT CARD> $end                                                                           
    1000000 WORDS OF MEMORY AVAILABLE

     BASIS OPTIONS
     -------------
     GBASIS=STO          IGAUSS=       3      POLAR=NONE    
     NDFUNC=       0     NFFUNC=       0     DIFFSP=       F
     NPFUNC=       0      DIFFS=       F     BASNAM=        


     RUN TITLE
     ---------
 water                                                                           

 THE POINT GROUP OF THE MOLECULE IS C1      
 THE ORDER OF THE PRINCIPAL AXIS IS     0

 YOUR FULLY SUBSTITUTED Z-MATRIX IS
 O   
 H      1   0.9572000
 H      1   0.9572000  2  104.5000

 THE MOMENTS OF INERTIA ARE (AMU-ANGSTROM**2)
 IXX=     0.615   IYY=     1.155   IZZ=     1.769

 ATOM      ATOMIC                      COORDINATES (BOHR)
           CHARGE         X                   Y                   Z
 O           8.0     0.0000000000       -0.1239352980        0.0000000000
 H           1.0     1.4302354477        0.9834713059        0.0000000000
 H           1.0    -1.4302354477        0.9834713059        0.0000000000

          INTERNUCLEAR DISTANCES (ANGS.)
          ------------------------------

                1 O          2 H          3 H     

   1 O       0.0000000    0.9572000 *  0.9572000 *
   2 H       0.9572000 *  0.0000000    1.5136961 *
   3 H       0.9572000 *  1.5136961 *  0.0000000  

  * ... LESS THAN  3.000


     ATOMIC BASIS SET
     ----------------
 THE CONTRACTED PRIMITIVE FUNCTIONS HAVE BEEN UNNORMALIZED
 THE CONTRACTED BASIS FUNCTIONS ARE NOW NORMALIZED TO UNITY

  SHELL TYPE  PRIMITIVE        EXPONENT          CONTRACTION COEFFICIENT(S)

 O         

      1   S       1           130.7093214    0.154328967295
      1   S       2            23.8088661    0.535328142282
      1   S       3             6.4436083    0.444634542185

      2   L       4             5.0331513   -0.099967229187    0.155916274999
      2   L       5             1.1695961    0.399512826089    0.607683718598
      2   L       6             0.3803890    0.700115468880    0.391957393099

 H         

      3   S       7             3.4252509    0.154328967295
      3   S       8             0.6239137    0.535328142282
      3   S       9             0.1688554    0.444634542185

 H         

      4   S      10             3.4252509    0.154328967295
      4   S      11             0.6239137    0.535328142282
      4   S      12             0.1688554    0.444634542185

 TOTAL NUMBER OF BASIS SET SHELLS             =    4
 NUMBER OF CARTESIAN GAUSSIAN BASIS FUNCTIONS =    7
 NUMBER OF ELECTRONS                          =   10
 CHARGE OF MOLECULE                           =    0
 SPIN MULTIPLICITY                            =    1
 NUMBER OF OCCUPIED ORBITALS (ALPHA)          =    5
 NUMBER OF OCCUPIED ORBITALS (BETA )          =    5
 TOTAL NUMBER OF ATOMS                        =    3
 THE NUCLEAR REPULSION ENERGY IS        9.1950127519

     $CONTRL OPTIONS
     ---------------
 SCFTYP=RHF          RUNTYP=ENERGY       EXETYP=RUN     
 MPLEVL=       0     CITYP =NONE         CCTYP =NONE         VBTYP =NONE    
 DFTTYP=NONE         TDDFT =NONE    
 MULT  =       1     ICHARG=       0     NZVAR =       0     COORD =ZMT     
 PP    =NONE         RELWFN=NONE         LOCAL =NONE         NUMGRD=       F
 ISPHER=      -1     NOSYM =       0     MAXIT =      30     UNITS =ANGS    
 PLTORB=       F     MOLPLT=       F     AIMPAC=       F     FRIEND=        
 NPRINT=       9     IREST =       0     GEOM  =INPUT   
 NORMF =       0     NORMP =       0     ITOL  =      20     ICUT  =       9
 INTTYP=BEST         GRDTYP=BEST         QMTTOL= 1.0E-06

     $SYSTEM OPTIONS
     ---------------
  REPLICATED MEMORY=     1000000 WORDS (ON EVERY NODE).
 DISTRIBUTED MEMDDI=           0 MILLION WORDS IN AGGREGATE,
 MEMDDI DISTRIBUTED OVER   1 PROCESSORS IS           0 WORDS/PROCESSOR.
 TOTAL MEMORY REQUESTED ON EACH PROCESSOR=     1000000 WORDS.
 TIMLIM=      525600.00 MINUTES, OR     365.0 DAYS.
 PARALL= F  BALTYP=  DLB     KDIAG=    0  COREFL= F
 MXSEQ2=     300 MXSEQ3=     150

          ----------------
          PROPERTIES INPUT
          ----------------

     MOMENTS            FIELD           POTENTIAL          DENSITY
 IEMOM =       1   IEFLD =       0   IEPOT =       0   IEDEN =       0
 WHERE =COMASS     WHERE =NUCLEI     WHERE =NUCLEI     WHERE =NUCLEI  
 OUTPUT=BOTH       OUTPUT=BOTH       OUTPUT=BOTH       OUTPUT=BOTH    
 IEMINT=       0   IEFINT=       0                     IEDINT=       0
                                                       MORB  =       0
          EXTRAPOLATION IN EFFECT
 ORBITAL PRINTING OPTION: NPREO=     1     7     2     1

     -------------------------------
     INTEGRAL TRANSFORMATION OPTIONS
     -------------------------------
     NWORD  =            0
     CUTOFF = 1.0E-09     MPTRAN =       0
     DIRTRF =       T     AOINTS =DUP     

          ----------------------
          INTEGRAL INPUT OPTIONS
          ----------------------
 NOPK  =       1 NORDER=       0 SCHWRZ=       T

   --- ENCODED Z MATRIX ---
 COORD  TYPE   I   J   K   L   M   N
    1      1    2   1
    2      1    3   1
    3      2    3   1   2

 THE DETERMINANT OF THE G MATRIX IS 10**(    -1)

     ------------------------------------------
     THE POINT GROUP IS C1 , NAXIS= 0, ORDER= 1
     ------------------------------------------

     DIMENSIONS OF THE SYMMETRY SUBSPACES ARE
 A   =    7

 ..... DONE SETTING UP THE RUN .....
 STEP CPU TIME =     0.01 TOTAL CPU TIME =        0.0 (    0.0 MIN)
 TOTAL WALL CLOCK TIME=        0.5 SECONDS, CPU UTILIZATION IS   2.04%

          ********************
          1 ELECTRON INTEGRALS
          ********************
 ...... END OF ONE-ELECTRON INTEGRALS ......
 STEP CPU TIME =     0.01 TOTAL CPU TIME =        0.0 (    0.0 MIN)
 TOTAL WALL CLOCK TIME=        0.5 SECONDS, CPU UTILIZATION IS   4.00%

          -------------
          GUESS OPTIONS
          -------------
          GUESS =HUCKEL            NORB  =       0          NORDER=       0
          MIX   =       F          PRTMO =       F          PUNMO =       F
          TOLZ  = 1.0E-08          TOLE  = 1.0E-05
          SYMDEN=       F          PURIFY=       F

 INITIAL GUESS ORBITALS GENERATED BY HUCKEL   ROUTINE.
 HUCKEL GUESS REQUIRES      2569 WORDS.

 SYMMETRIES FOR INITIAL GUESS ORBITALS FOLLOW.   BOTH SET(S).
     5 ORBITALS ARE OCCUPIED (    1 CORE ORBITALS).
     2=A        3=A        4=A        5=A        6=A        7=A   
 ...... END OF INITIAL ORBITAL SELECTION ......
 STEP CPU TIME =     0.00 TOTAL CPU TIME =        0.0 (    0.0 MIN)
 TOTAL WALL CLOCK TIME=        0.6 SECONDS, CPU UTILIZATION IS   3.51%

                    ----------------------
                    AO INTEGRAL TECHNOLOGY
                    ----------------------
     S,P,L SHELL ROTATED AXIS INTEGRALS, REPROGRAMMED BY
        KAZUYA ISHIMURA (IMS) AND JOSE SIERRA (SYNSTAR).
     S,P,D,L SHELL ROTATED AXIS INTEGRALS PROGRAMMED BY
        KAZUYA ISHIMURA (INSTITUTE FOR MOLECULAR SCIENCE).
     S,P,D,F,G SHELL TO TOTAL QUARTET ANGULAR MOMENTUM SUM 5,
        ERIC PROGRAM BY GRAHAM FLETCHER (ELORET AND NASA ADVANCED
        SUPERCOMPUTING DIVISION, AMES RESEARCH CENTER).
     S,P,D,F,G,L SHELL GENERAL RYS QUADRATURE PROGRAMMED BY
        MICHEL DUPUIS (PACIFIC NORTHWEST NATIONAL LABORATORY).

          --------------------
          2 ELECTRON INTEGRALS
          --------------------

 DIRECT SCF METHOD SKIPS INTEGRAL STORAGE ON DISK.
 DIRECT TRANSFORMATION SKIPS AO INTEGRAL STORAGE ON DISK.
  ...... END OF TWO-ELECTRON INTEGRALS .....
 STEP CPU TIME =     0.02 TOTAL CPU TIME =        0.0 (    0.0 MIN)
 TOTAL WALL CLOCK TIME=        0.7 SECONDS, CPU UTILIZATION IS   6.15%

          --------------------------
                 RHF SCF CALCULATION
          --------------------------

     NUCLEAR ENERGY =         9.1950127519
     MAXIT =   30     NPUNCH=    2
     EXTRAP=T  DAMP=F  SHIFT=F  RSTRCT=F  DIIS=F  DEM=F  SOSCF=F
     DENSITY MATRIX CONV=  2.00E-05
     MEMORY REQUIRED FOR RHF ITERS=     44817 WORDS.

 DIRECT SCF CALCULATION, SCHWRZ=T   FDIFF=T,  DIRTHR=  0.00E+00 NITDIR=10
 SCHWARZ INEQUALITY OVERHEAD:        28 INTEGRALS, T=        0.00

                                                                                   NONZERO     BLOCKS
 ITER EX DEM     TOTAL ENERGY        E CHANGE  DENSITY CHANGE    DIIS ERROR      INTEGRALS    SKIPPED
   1  0  0      -74.7971324424   -74.7971324424   0.600312528   0.000000000            228          0
   2  1  0      -74.9495246592    -0.1523922168   0.182127461   0.000000000            228          0
   3  2  0      -74.9614806094    -0.0119559502   0.059955746   0.000000000            228          0
   4  3  0      -74.9627291768    -0.0012485674   0.020355670   0.000000000            228          0
   5  0  0      -74.9629001935    -0.0001710167   0.020970624   0.000000000            228          0
   6  1  0      -74.9629080993    -0.0000079058   0.005154784   0.000000000            228          0
   7  2  0      -74.9629295244    -0.0000214251   0.002299729   0.000000000            228          0
   8  3  0      -74.9629335454    -0.0000040210   0.000992820   0.000000000            228          0
   9  0  0      -74.9629343007    -0.0000007553   0.000759375   0.000000000            228          0
  10  1  0      -74.9629344753    -0.0000001746   0.000000959   0.000000000            228          0
  11  2  0      -74.9629344753    -0.0000000000   0.000000316   0.000000000            228          0

          -----------------
          DENSITY CONVERGED
          -----------------
     TIME TO FORM FOCK OPERATORS=       0.0 SECONDS (       0.0 SEC/ITER)
     FOCK TIME ON FIRST ITERATION=       0.0, LAST ITERATION=       0.0
     TIME TO SOLVE SCF EQUATIONS=       0.0 SECONDS (       0.0 SEC/ITER)

 FINAL RHF ENERGY IS      -74.9629344753 AFTER  11 ITERATIONS

          ------------
          EIGENVECTORS
          ------------

                      1          2          3          4          5
                  -20.2418    -1.2684    -0.6179    -0.4530    -0.3913
                     A          A          A          A          A   
    1  O  1  S    0.994130  -0.232784   0.000000   0.103189   0.000000
    2  O  1  S    0.026562   0.833487   0.000000  -0.536922   0.000000
    3  O  1  X   -0.000000  -0.000000   0.606472  -0.000000   0.000000
    4  O  1  Y    0.004347   0.129621   0.000000   0.776682   0.000000
    5  O  1  Z   -0.000000  -0.000000   0.000000  -0.000000   1.000000
    6  H  2  S   -0.005972   0.158718   0.445013   0.277850   0.000000
    7  H  3  S   -0.005972   0.158718  -0.445013   0.277850   0.000000

                      6          7
                    0.6057     0.7423
                     A          A   
    1  O  1  S   -0.132382   0.000000
    2  O  1  S    0.884717   0.000000
    3  O  1  X    0.000000   0.990545
    4  O  1  Y    0.742425   0.000000
    5  O  1  Z    0.000000   0.000000
    6  H  2  S   -0.797141  -0.838714
    7  H  3  S   -0.797141   0.838714

          --------------
          DENSITY MATRIX
          --------------

                      1          2          3          4          5

    1  O  1  S    2.106260
    2  O  1  S   -0.446041   1.967383
    3  O  1  X    0.000000   0.000000   0.735617
    4  O  1  Y    0.108585  -0.617730   0.000000   1.240110
    5  O  1  Z    0.000000   0.000000   0.000000   0.000000   2.000000
    6  H  2  S   -0.028426  -0.034106   0.539776   0.472696   0.000000
    7  H  3  S   -0.028426  -0.034106  -0.539776   0.472696   0.000000

                      6          7

    6  H  2  S    0.600928
    7  H  3  S   -0.191218   0.600928
 ...... END OF RHF CALCULATION ......
 STEP CPU TIME =     0.01 TOTAL CPU TIME =        0.0 (    0.0 MIN)
 TOTAL WALL CLOCK TIME=        0.7 SECONDS, CPU UTILIZATION IS   7.04%

     ----------------------------------------------------------------
     PROPERTY VALUES FOR THE RHF   SELF-CONSISTENT FIELD WAVEFUNCTION
     ----------------------------------------------------------------

          -----------------
          ENERGY COMPONENTS
          -----------------

         WAVEFUNCTION NORMALIZATION =       1.0000000000

                ONE ELECTRON ENERGY =    -122.3710844986
                TWO ELECTRON ENERGY =      38.2131372714
           NUCLEAR REPULSION ENERGY =       9.1950127519
                                      ------------------
                       TOTAL ENERGY =     -74.9629344753

 ELECTRON-ELECTRON POTENTIAL ENERGY =      38.2131372714
  NUCLEUS-ELECTRON POTENTIAL ENERGY =    -196.9600058898
   NUCLEUS-NUCLEUS POTENTIAL ENERGY =       9.1950127519
                                      ------------------
             TOTAL POTENTIAL ENERGY =    -149.5518558665
               TOTAL KINETIC ENERGY =      74.5889213911
                 VIRIAL RATIO (V/T) =       2.0050143249

  ...... PI ENERGY ANALYSIS ......

 ENERGY ANALYSIS:
            FOCK ENERGY=    -45.9448099795
          BARE H ENERGY=   -122.3710844986
     ELECTRONIC ENERGY =    -84.1579472391
         KINETIC ENERGY=     74.5889213911
          N-N REPULSION=      9.1950127519
           TOTAL ENERGY=    -74.9629344872
        SIGMA PART(1+2)=    -76.3090245741
               (K,V1,2)=     69.5314589391   -176.9872181500     31.1467346368
           PI PART(1+2)=     -7.8489226650
               (K,V1,2)=      5.0574624520    -19.9727877398      7.0664026228
  SIGMA SKELETON, ERROR=    -67.1140118222     -0.0000000000
             MIXED PART= 0.00000E+00 0.00000E+00 0.00000E+00 0.00000E+00
 ...... END OF PI ENERGY ANALYSIS ......

          -----------------------------------------
          LOWDIN ORBITAL (VO(I,J)**2)*SIGN(VO(I,J))
          -----------------------------------------

                      1          2          3          4          5

                  -20.2418    -1.2684    -0.6179    -0.4530    -0.3913

    1  O  1  S   -0.979794   0.016176  -0.000000  -0.002037   0.000000
    2  O  1  S   -0.019870  -0.674775  -0.000000   0.143115   0.000000
    3  O  1  X    0.000000  -0.000000   0.550480  -0.000000  -0.000000
    4  O  1  Y   -0.000006  -0.019803  -0.000000  -0.720623   0.000000
    5  O  1  Z   -0.000000  -0.000000  -0.000000   0.000000   1.000000
    6  H  2  S   -0.000165  -0.144623   0.224760  -0.067112  -0.000000
    7  H  3  S   -0.000165  -0.144623  -0.224760  -0.067112   0.000000

                      6          7

                    0.6057     0.7423

    1  O  1  S   -0.001993  -0.000000
    2  O  1  S    0.162240  -0.000000
    3  O  1  X    0.000000   0.449520
    4  O  1  Y    0.259568  -0.000000
    5  O  1  Z    0.000000   0.000000
    6  H  2  S   -0.288100  -0.275240
    7  H  3  S   -0.288100   0.275240

          ------------------------
          LOWDIN BOND ORDER MATRIX
          ------------------------

                      1          2          3          4          5

    1  O  1  S    1.996014
    2  O  1  S    0.000000   1.675521
    3  O  1  X    0.000000   0.000000   1.100961
    4  O  1  Y    0.000000   0.000000   0.000000   1.480864
    5  O  1  Z    0.000000   0.000000   0.000000   0.000000   2.000000
    6  H  2  S    0.000000   0.000000   0.000000   0.000000   0.000000
    7  H  3  S    0.000000   0.000000   0.000000   0.000000   0.000000

                      6          7

    6  H  2  S    0.873320
    7  H  3  S    0.000000   0.873320

          ---------------------------------------
          MULLIKEN AND LOWDIN POPULATION ANALYSES
          ---------------------------------------

     AO MULLIKEN POPULATIONS IN EACH MOLECULAR ORBITAL

                      1          2          3          4          5

                  2.000000   2.000000   2.000000   2.000000   2.000000

    1             1.987806   0.008548   0.000000   0.001257   0.000000
    2             0.013611   1.548796   0.000000   0.267009   0.000000
    3             0.000000   0.000000   1.071463   0.000000   0.000000
    4             0.000013   0.053426   0.000000   1.414395   0.000000
    5             0.000000   0.000000   0.000000   0.000000   2.000000
    6            -0.000715   0.194615   0.464268   0.158669   0.000000
    7            -0.000715   0.194615   0.464268   0.158669   0.000000

     ATOMIC MULLIKEN POPULATION IN EACH MOLECULAR ORBITAL

                      1          2          3          4          5

                  2.000000   2.000000   2.000000   2.000000   2.000000

    1             2.001430   1.610770   1.071463   1.682662   2.000000
    2            -0.000715   0.194615   0.464268   0.158669   0.000000
    3            -0.000715   0.194615   0.464268   0.158669   0.000000

               ----- POPULATIONS IN EACH AO -----
                             MULLIKEN      LOWDIN
              1  O  1  S      1.99761     1.99601
              2  O  1  S      1.82942     1.67552
              3  O  1  X      1.07146     1.10096
              4  O  1  Y      1.46783     1.48086
              5  O  1  Z      2.00000     2.00000
              6  H  2  S      0.81684     0.87332
              7  H  3  S      0.81684     0.87332

          ----- MULLIKEN ATOMIC OVERLAP POPULATIONS -----
          (OFF-DIAGONAL ELEMENTS NEED TO BE MULTIPLIED BY 2)

             1           2           3

    1    7.8382095
    2    0.2640572   0.6009276
    3    0.2640572  -0.0481468   0.6009276

          TOTAL MULLIKEN AND LOWDIN ATOMIC POPULATIONS
       ATOM         MULL.POP.    CHARGE          LOW.POP.     CHARGE
    1 O             8.366324   -0.366324         8.253360   -0.253360
    2 H             0.816838    0.183162         0.873320    0.126680
    3 H             0.816838    0.183162         0.873320    0.126680

          -------------------------------
          BOND ORDER AND VALENCE ANALYSIS     BOND ORDER THRESHOLD=0.050
          -------------------------------

                   BOND                       BOND                       BOND
  ATOM PAIR DIST  ORDER      ATOM PAIR DIST  ORDER      ATOM PAIR DIST  ORDER
    1   2  0.957  0.954        1   3  0.957  0.954

                       TOTAL       BONDED        FREE
      ATOM            VALENCE     VALENCE     VALENCE
    1 O                 1.908       1.908       0.000
    2 H                 0.966       0.966       0.000
    3 H                 0.966       0.966       0.000

          ---------------------
          ELECTROSTATIC MOMENTS
          ---------------------

 POINT   1           X           Y           Z (BOHR)    CHARGE
                 0.000000    0.000000    0.000000        0.00 (A.U.)
         DX          DY          DZ         /D/  (DEBYE)
     0.000000    1.725941    0.000000    1.725941
 ...... END OF PROPERTY EVALUATION ......
 STEP CPU TIME =     0.00 TOTAL CPU TIME =        0.0 (    0.0 MIN)
 TOTAL WALL CLOCK TIME=        0.7 SECONDS, CPU UTILIZATION IS   6.85%
               580000  WORDS OF DYNAMIC MEMORY USED
 EXECUTION OF GAMESS TERMINATED NORMALLY Thu Aug 30 15:18:04 2012
 DDI: 263624 bytes (0.3 MB / 0 MWords) used by master data server.

 ----------------------------------------
 CPU timing information for all processes
 ========================================
 0: 0.39 + 0.22 = 0.61
 ----------------------------------------
 ddikick.x: exited gracefully.
----- accounting info -----
Files used on the master node kolmakov.sam.pitt.edu were:
-rw-r--r--  1 albert  staff      143 Aug 30 15:18 /Users/albert/Development/openqube/testfiles/water/rhf.F05
-rw-r--r--  1 albert  staff  1276080 Aug 30 15:18 /Users/albert/Development/openqube/testfiles/water/rhf.F10
-rw-r--r--  1 albert  staff  2992054 Aug 28 12:57 /Users/albert/Development/openqube/testfiles/water/rhf.cube
-rw-r--r--  1 albert  staff     1813 Aug 30 15:18 /Users/albert/Development/openqube/testfiles/water/rhf.dat
-rw-r--r--  1 albert  staff    24273 Aug 30 15:18 /Users/albert/Development/openqube/testfiles/water/rhf.gamess
-rw-r--r--  1 albert  staff      143 Aug 30 15:17 /Users/albert/Development/openqube/testfiles/water/rhf.inp
Thu Aug 30 15:18:07 EDT 2012
0.131u 0.091s 0:04.19 5.2%	0+0k 16+16io 507pf+0w
