----- GAMESS execution script -----
This job is running on host kolmakov.sam.pitt.edu
under operating system Darwin at Wed Jul 25 14:43:48 EDT 2012
Available scratch disk space (Kbyte units) at beginning of the job is
Filesystem   1024-blocks      Used Available Capacity  Mounted on
/dev/disk0s2   731734976 110130072 621348904    16%    /

 Distributed Data Interface kickoff program.
 Initiating 1 compute processes on 1 nodes to run the following command:
 /Users/albert/Development/gamess/master/gamess.master.x rohf 

          ******************************************************
          *         GAMESS VERSION = 11 AUG 2011 (R1)          *
          *             FROM IOWA STATE UNIVERSITY             *
          * M.W.SCHMIDT, K.K.BALDRIDGE, J.A.BOATZ, S.T.ELBERT, *
          *   M.S.GORDON, J.H.JENSEN, S.KOSEKI, N.MATSUNAGA,   *
          *          K.A.NGUYEN, S.J.SU, T.L.WINDUS,           *
          *       TOGETHER WITH M.DUPUIS, J.A.MONTGOMERY       *
          *         J.COMPUT.CHEM.  14, 1347-1363(1993)        *
          **************** 64 BIT APPLE VERSION ****************

  SINCE 1993, STUDENTS AND POSTDOCS WORKING AT IOWA STATE UNIVERSITY
  AND ALSO IN THEIR VARIOUS JOBS AFTER LEAVING ISU HAVE MADE IMPORTANT
  CONTRIBUTIONS TO THE CODE:
     IVANA ADAMOVIC, CHRISTINE AIKENS, YURI ALEXEEV, POOJA ARORA,
     ANDREY ASADCHEV, ROB BELL, PRADIPTA BANDYOPADHYAY, JONATHAN BENTZ,
     BRETT BODE, GALINA CHABAN, WEI CHEN, CHEOL HO CHOI, PAUL DAY,
     ALBERT DEFUSCO, TIM DUDLEY, DMITRI FEDOROV, GRAHAM FLETCHER,
     MARK FREITAG, KURT GLAESEMANN, DAN KEMP, GRANT MERRILL,
     NORIYUKI MINEZAWA, JONATHAN MULLIN, TAKESHI NAGATA,
     SEAN NEDD, HEATHER NETZLOFF, BOSILJKA NJEGIC, RYAN OLSON, MIKE PAK,
     JIM SHOEMAKER, LYUDMILA SLIPCHENKO, SAROM SOK, JIE SONG,
     TETSUYA TAKETSUGU, SIMON WEBB, SOOHAENG YOO, FEDERICO ZAHARIEV

  ADDITIONAL CODE HAS BEEN PROVIDED BY COLLABORATORS IN OTHER GROUPS:
     IOWA STATE UNIVERSITY:
          JOE IVANIC, LAIMUTIS BYTAUTAS, KLAUS RUEDENBERG
     UNIVERSITY OF TOKYO: KIMIHIKO HIRAO, TAKAHITO NAKAJIMA,
          TAKAO TSUNEDA, MUNEAKI KAMIYA, SUSUMU YANAGISAWA,
          KIYOSHI YAGI, MAHITO CHIBA, SEIKEN TOKURA, NAOAKI KAWAKAMI
     UNIVERSITY OF AARHUS: FRANK JENSEN
     UNIVERSITY OF IOWA: VISVALDAS KAIRYS, HUI LI
     NATIONAL INST. OF STANDARDS AND TECHNOLOGY: WALT STEVENS, DAVID GARMER
     UNIVERSITY OF PISA: BENEDETTA MENNUCCI, JACOPO TOMASI
     UNIVERSITY OF MEMPHIS: HENRY KURTZ, PRAKASHAN KORAMBATH
     UNIVERSITY OF ALBERTA: TOBY ZENG, MARIUSZ KLOBUKOWSKI
     UNIVERSITY OF NEW ENGLAND: MARK SPACKMAN
     MIE UNIVERSITY: HIROAKI UMEDA
     MICHIGAN STATE UNIVERSITY:
          KAROL KOWALSKI, MARTA WLOCH, JEFFREY GOUR, JESSE LUTZ, PIOTR PIECUCH
     UNIVERSITY OF SILESIA: MONIKA MUSIAL, STANISLAW KUCHARSKI
     FACULTES UNIVERSITAIRES NOTRE-DAME DE LA PAIX:
          OLIVIER QUINET, BENOIT CHAMPAGNE
     UNIVERSITY OF CALIFORNIA - SANTA BARBARA: BERNARD KIRTMAN
     INSTITUTE FOR MOLECULAR SCIENCE:
          KAZUYA ISHIMURA, MICHIO KATOUDA, AND SHIGERU NAGASE
     UNIVERSITY OF NOTRE DAME: DAN CHIPMAN
     KYUSHU UNIVERSITY:
          HARUYUKI NAKANO,
          FENG LONG GU, JACEK KORCHOWIEC, MARCIN MAKOWSKI, AND YURIKO AOKI,
          HIROTOSHI MORI AND EISAKU MIYOSHI
     PENNSYLVANIA STATE UNIVERSITY:
          TZVETELIN IORDANOV, CHET SWALINA, JONATHAN SKONE,
          SHARON HAMMES-SCHIFFER
     WASEDA UNIVERSITY:
          MASATO KOBAYASHI, TOMOKO AKAMA, TSUGUKI TOUMA,
          TAKESHI YOSHIKAWA, YASUHIRO IKABATA, HIROMI NAKAI
     UNIVERSITY OF NEBRASKA:
          PEIFENG SU, DEJUN SI, NANDUN THELLAMUREGE, YALI WANG, HUI LI
     UNIVERSITY OF ZURICH:
          ROBERTO PEVERATI, KIM BALDRIDGE
     N. COPERNICUS UNIVERSITY AND JACKSON STATE UNIVERSITY:
          MARIA BARYSZ

 EXECUTION OF GAMESS BEGUN Wed Jul 25 14:43:48 2012

            ECHO OF THE FIRST FEW INPUT CARDS -
 INPUT CARD> $contrl icharg=1 mult=2 scftyp=rohf coord=zmt $end                             
 INPUT CARD> $scf dirscf=.t. $end                                                           
 INPUT CARD> $basis gbasis=sto ngauss=3 $end                                                
 INPUT CARD> $data                                                                          
 INPUT CARD>water                                                                           
 INPUT CARD>c1                                                                              
 INPUT CARD>O                                                                               
 INPUT CARD>H 1 0.9572                                                                      
 INPUT CARD>H 1 0.9572 2 105.4                                                              
 INPUT CARD>                                                                                
 INPUT CARD> $end                                                                           
    1000000 WORDS OF MEMORY AVAILABLE

     BASIS OPTIONS
     -------------
     GBASIS=STO          IGAUSS=       3      POLAR=NONE    
     NDFUNC=       0     NFFUNC=       0     DIFFSP=       F
     NPFUNC=       0      DIFFS=       F     BASNAM=        


     RUN TITLE
     ---------
 water                                                                           

 THE POINT GROUP OF THE MOLECULE IS C1      
 THE ORDER OF THE PRINCIPAL AXIS IS     0

 YOUR FULLY SUBSTITUTED Z-MATRIX IS
 O   
 H      1   0.9572000
 H      1   0.9572000  2  105.4000

 THE MOMENTS OF INERTIA ARE (AMU-ANGSTROM**2)
 IXX=     0.602   IYY=     1.169   IZZ=     1.771

 ATOM      ATOMIC                      COORDINATES (BOHR)
           CHARGE         X                   Y                   Z
 O           8.0     0.0000000000       -0.1226743436        0.0000000000
 H           1.0     1.4388887976        0.9734651778        0.0000000000
 H           1.0    -1.4388887976        0.9734651778        0.0000000000

          INTERNUCLEAR DISTANCES (ANGS.)
          ------------------------------

                1 O          2 H          3 H     

   1 O       0.0000000    0.9572000 *  0.9572000 *
   2 H       0.9572000 *  0.0000000    1.5228544 *
   3 H       0.9572000 *  1.5228544 *  0.0000000  

  * ... LESS THAN  3.000


     ATOMIC BASIS SET
     ----------------
 THE CONTRACTED PRIMITIVE FUNCTIONS HAVE BEEN UNNORMALIZED
 THE CONTRACTED BASIS FUNCTIONS ARE NOW NORMALIZED TO UNITY

  SHELL TYPE  PRIMITIVE        EXPONENT          CONTRACTION COEFFICIENT(S)

 O         

      1   S       1           130.7093214    0.154328967295
      1   S       2            23.8088661    0.535328142282
      1   S       3             6.4436083    0.444634542185

      2   L       4             5.0331513   -0.099967229187    0.155916274999
      2   L       5             1.1695961    0.399512826089    0.607683718598
      2   L       6             0.3803890    0.700115468880    0.391957393099

 H         

      3   S       7             3.4252509    0.154328967295
      3   S       8             0.6239137    0.535328142282
      3   S       9             0.1688554    0.444634542185

 H         

      4   S      10             3.4252509    0.154328967295
      4   S      11             0.6239137    0.535328142282
      4   S      12             0.1688554    0.444634542185

 TOTAL NUMBER OF BASIS SET SHELLS             =    4
 NUMBER OF CARTESIAN GAUSSIAN BASIS FUNCTIONS =    7
 NUMBER OF ELECTRONS                          =    9
 CHARGE OF MOLECULE                           =    1
 SPIN MULTIPLICITY                            =    2
 NUMBER OF OCCUPIED ORBITALS (ALPHA)          =    5
 NUMBER OF OCCUPIED ORBITALS (BETA )          =    4
 TOTAL NUMBER OF ATOMS                        =    3
 THE NUCLEAR REPULSION ENERGY IS        9.1929103318

     $CONTRL OPTIONS
     ---------------
 SCFTYP=ROHF         RUNTYP=ENERGY       EXETYP=RUN     
 MPLEVL=       0     CITYP =NONE         CCTYP =NONE         VBTYP =NONE    
 DFTTYP=NONE         TDDFT =NONE    
 MULT  =       2     ICHARG=       1     NZVAR =       0     COORD =ZMT     
 PP    =NONE         RELWFN=NONE         LOCAL =NONE         NUMGRD=       F
 ISPHER=      -1     NOSYM =       0     MAXIT =      30     UNITS =ANGS    
 PLTORB=       F     MOLPLT=       F     AIMPAC=       F     FRIEND=        
 NPRINT=       7     IREST =       0     GEOM  =INPUT   
 NORMF =       0     NORMP =       0     ITOL  =      20     ICUT  =       9
 INTTYP=BEST         GRDTYP=BEST         QMTTOL= 1.0E-06

     $SYSTEM OPTIONS
     ---------------
  REPLICATED MEMORY=     1000000 WORDS (ON EVERY NODE).
 DISTRIBUTED MEMDDI=           0 MILLION WORDS IN AGGREGATE,
 MEMDDI DISTRIBUTED OVER   1 PROCESSORS IS           0 WORDS/PROCESSOR.
 TOTAL MEMORY REQUESTED ON EACH PROCESSOR=     1000000 WORDS.
 TIMLIM=      525600.00 MINUTES, OR     365.0 DAYS.
 PARALL= F  BALTYP=  DLB     KDIAG=    0  COREFL= F
 MXSEQ2=     300 MXSEQ3=     150

          ----------------
          PROPERTIES INPUT
          ----------------

     MOMENTS            FIELD           POTENTIAL          DENSITY
 IEMOM =       1   IEFLD =       0   IEPOT =       0   IEDEN =       0
 WHERE =COMASS     WHERE =NUCLEI     WHERE =NUCLEI     WHERE =NUCLEI  
 OUTPUT=BOTH       OUTPUT=BOTH       OUTPUT=BOTH       OUTPUT=BOTH    
 IEMINT=       0   IEFINT=       0                     IEDINT=       0
                                                       MORB  =       0
          EXTRAPOLATION IN EFFECT
 ORBITAL PRINTING OPTION: NPREO=     1     7     2     1

     -------------------------------
     INTEGRAL TRANSFORMATION OPTIONS
     -------------------------------
     NWORD  =            0
     CUTOFF = 1.0E-09     MPTRAN =       0
     DIRTRF =       T     AOINTS =DUP     

          ----------------------
          INTEGRAL INPUT OPTIONS
          ----------------------
 NOPK  =       1 NORDER=       0 SCHWRZ=       T

   --- ENCODED Z MATRIX ---
 COORD  TYPE   I   J   K   L   M   N
    1      1    2   1
    2      1    3   1
    3      2    3   1   2

 THE DETERMINANT OF THE G MATRIX IS 10**(    -1)

     ------------------------------------------
     THE POINT GROUP IS C1 , NAXIS= 0, ORDER= 1
     ------------------------------------------

     DIMENSIONS OF THE SYMMETRY SUBSPACES ARE
 A   =    7

 ..... DONE SETTING UP THE RUN .....
 STEP CPU TIME =     0.00 TOTAL CPU TIME =        0.0 (    0.0 MIN)
 TOTAL WALL CLOCK TIME=        0.0 SECONDS, CPU UTILIZATION IS 100.00%

          ********************
          1 ELECTRON INTEGRALS
          ********************
 ...... END OF ONE-ELECTRON INTEGRALS ......
 STEP CPU TIME =     0.00 TOTAL CPU TIME =        0.0 (    0.0 MIN)
 TOTAL WALL CLOCK TIME=        0.0 SECONDS, CPU UTILIZATION IS 100.00%

          -------------
          GUESS OPTIONS
          -------------
          GUESS =HUCKEL            NORB  =       0          NORDER=       0
          MIX   =       F          PRTMO =       F          PUNMO =       F
          TOLZ  = 1.0E-08          TOLE  = 1.0E-05
          SYMDEN=       F          PURIFY=       F

 INITIAL GUESS ORBITALS GENERATED BY HUCKEL   ROUTINE.
 HUCKEL GUESS REQUIRES      2569 WORDS.

 SYMMETRIES FOR INITIAL GUESS ORBITALS FOLLOW.  ALPHA SET(S).
     5 ORBITALS ARE OCCUPIED (    1 CORE ORBITALS).
     2=A        3=A        4=A        5=A        6=A        7=A   

 SYMMETRIES FOR INITIAL GUESS ORBITALS FOLLOW.   BETA SET(S).
     4 ORBITALS ARE OCCUPIED (    1 CORE ORBITALS).
     2=A        3=A        4=A        5=A        6=A        7=A   
 ...... END OF INITIAL ORBITAL SELECTION ......
 STEP CPU TIME =     0.00 TOTAL CPU TIME =        0.0 (    0.0 MIN)
 TOTAL WALL CLOCK TIME=        0.0 SECONDS, CPU UTILIZATION IS 100.00%

                    ----------------------
                    AO INTEGRAL TECHNOLOGY
                    ----------------------
     S,P,L SHELL ROTATED AXIS INTEGRALS, REPROGRAMMED BY
        KAZUYA ISHIMURA (IMS) AND JOSE SIERRA (SYNSTAR).
     S,P,D,L SHELL ROTATED AXIS INTEGRALS PROGRAMMED BY
        KAZUYA ISHIMURA (INSTITUTE FOR MOLECULAR SCIENCE).
     S,P,D,F,G SHELL TO TOTAL QUARTET ANGULAR MOMENTUM SUM 5,
        ERIC PROGRAM BY GRAHAM FLETCHER (ELORET AND NASA ADVANCED
        SUPERCOMPUTING DIVISION, AMES RESEARCH CENTER).
     S,P,D,F,G,L SHELL GENERAL RYS QUADRATURE PROGRAMMED BY
        MICHEL DUPUIS (PACIFIC NORTHWEST NATIONAL LABORATORY).

          --------------------
          2 ELECTRON INTEGRALS
          --------------------

 DIRECT SCF METHOD SKIPS INTEGRAL STORAGE ON DISK.
 DIRECT TRANSFORMATION SKIPS AO INTEGRAL STORAGE ON DISK.
  ...... END OF TWO-ELECTRON INTEGRALS .....
 STEP CPU TIME =     0.01 TOTAL CPU TIME =        0.0 (    0.0 MIN)
 TOTAL WALL CLOCK TIME=        0.0 SECONDS, CPU UTILIZATION IS  50.00%

          ---------------------------
                 ROHF SCF CALCULATION
          ---------------------------

     NUCLEAR ENERGY =         9.1929103318
     MAXIT = 30     NPUNCH=  2     MULT=  2
     EXTRAP=T  DAMP=F  SHIFT=F  RSTRCT=F  DIIS=F  SOSCF=F
     DENSITY MATRIX CONV=  2.00E-05
     ROHF CANONICALIZATION PARAMETERS
             C-C     O-O     V-V
     ALPHA -0.5000  0.5000  1.5000
     BETA   1.5000  0.5000 -0.5000
     MEMORY REQUIRED FOR UHF/ROHF ITERS=     44922 WORDS.

 DIRECT SCF CALCULATION, SCHWRZ=T   FDIFF=T
 SCHWARZ INEQUALITY OVERHEAD:        28 INTEGRALS, T=        0.00

                                                                                NONZERO     BLOCKS
 ITER EX      TOTAL ENERGY        E CHANGE  DENSITY CHANGE    DIIS ERROR      INTEGRALS    SKIPPED
   1  0      -74.4024235618   -74.4024235618   0.769123248   0.000000000            228          0
   2  1      -74.6486554031    -0.2462318413   0.076461240   0.000000000            228          0
   3  2      -74.6538806529    -0.0052252498   0.022238135   0.000000000            228          0
   4  3      -74.6540465618    -0.0001659089   0.004481082   0.000000000            228          0
   5  0      -74.6540591563    -0.0000125945   0.002114833   0.000000000            228          0
   6  1      -74.6540607133    -0.0000015570   0.000162728   0.000000000            228          0
   7  2      -74.6540607221    -0.0000000087   0.000028308   0.000000000            228          0
   8  3      -74.6540607224    -0.0000000003   0.000005455   0.000000000            228          0
   9  4      -74.6540607224    -0.0000000000   0.000001203   0.000000000            228          0

          -----------------
          DENSITY CONVERGED
          -----------------
     TIME TO FORM FOCK OPERATORS=       0.0 SECONDS (       0.0 SEC/ITER)
     FOCK TIME ON FIRST ITERATION=       0.0, LAST ITERATION=       0.0
     TIME TO SOLVE SCF EQUATIONS=       0.0 SECONDS (       0.0 SEC/ITER)

 FINAL ROHF ENERGY IS      -74.6540607224 AFTER   9 ITERATIONS

          --------------------
          SPIN SZ   =    0.500
          S-SQUARED =    0.750
          --------------------

          ------------
          EIGENVECTORS
          ------------

                      1          2          3          4          5
                  -20.9900    -1.6916    -1.1458    -0.9784    -0.6699
                     A          A          A          A          A   
    1  O  1  S    0.994836  -0.232196  -0.000000   0.102870  -0.000000
    2  O  1  S    0.023704   0.857313  -0.000000  -0.495335  -0.000000
    3  O  1  X   -0.000000  -0.000000   0.718864  -0.000000  -0.000000
    4  O  1  Y    0.004270   0.223317  -0.000000   0.840102  -0.000000
    5  O  1  Z   -0.000000  -0.000000  -0.000000  -0.000000   1.000000
    6  H  2  S   -0.005785   0.121913   0.341818   0.183329  -0.000000
    7  H  3  S   -0.005785   0.121913  -0.341818   0.183329  -0.000000

                      6          7
                    0.0686     0.1933
                     A          A   
    1  O  1  S   -0.128351   0.000000
    2  O  1  S    0.886849   0.000000
    3  O  1  X    0.000000   0.914251
    4  O  1  Y    0.642150   0.000000
    5  O  1  Z    0.000000   0.000000
    6  H  2  S   -0.830896  -0.884930
    7  H  3  S   -0.830896   0.884930
 ...... END OF ROHF CALCULATION ......
 STEP CPU TIME =     0.01 TOTAL CPU TIME =        0.0 (    0.0 MIN)
 TOTAL WALL CLOCK TIME=        0.0 SECONDS, CPU UTILIZATION IS 100.00%

     ----------------------------------------------------------------
     PROPERTY VALUES FOR THE ROHF  SELF-CONSISTENT FIELD WAVEFUNCTION
     ----------------------------------------------------------------

          -----------------
          ENERGY COMPONENTS
          -----------------

         WAVEFUNCTION NORMALIZATION =       1.0000000000

                ONE ELECTRON ENERGY =    -116.4376940136
                TWO ELECTRON ENERGY =      32.5907229595
           NUCLEAR REPULSION ENERGY =       9.1929103318
                                      ------------------
                       TOTAL ENERGY =     -74.6540607224

 ELECTRON-ELECTRON POTENTIAL ENERGY =      32.5907229595
  NUCLEUS-ELECTRON POTENTIAL ENERGY =    -189.4984958837
   NUCLEUS-NUCLEUS POTENTIAL ENERGY =       9.1929103318
                                      ------------------
             TOTAL POTENTIAL ENERGY =    -147.7148625924
               TOTAL KINETIC ENERGY =      73.0608018700
                 VIRIAL RATIO (V/T) =       2.0218073004

  ...... PI ENERGY ANALYSIS ......

 ENERGY ANALYSIS:
            FOCK ENERGY=    -51.2562483749
          BARE H ENERGY=   -116.4376940136
     ELECTRONIC ENERGY =    -83.8469711943
         KINETIC ENERGY=     73.0608018700
          N-N REPULSION=      9.1929103318
           TOTAL ENERGY=    -74.6540608625
        SIGMA PART(1+2)=    -79.5631684165
               (K,V1,2)=     70.5320706440   -179.5121020138     29.4168629533
           PI PART(1+2)=     -4.2838027778
               (K,V1,2)=      2.5287312260     -9.9863938699      3.1738598661
  SIGMA SKELETON, ERROR=    -70.3702580847     -0.0000000000
             MIXED PART= 0.00000E+00 0.00000E+00 0.00000E+00 0.00000E+00
 ...... END OF PI ENERGY ANALYSIS ......

          ---------------------------------------
          MULLIKEN AND LOWDIN POPULATION ANALYSES
          ---------------------------------------

     ATOMIC MULLIKEN POPULATION IN EACH MOLECULAR ORBITAL

                      1          2          3          4          5

                  2.000000   2.000000   2.000000   2.000000   1.000000

    1             2.001359   1.707420   1.341154   1.853665   1.000000
    2            -0.000680   0.146290   0.329423   0.073167   0.000000
    3            -0.000680   0.146290   0.329423   0.073167   0.000000

     ATOMIC SPIN POPULATION (ALPHA MINUS BETA)
       ATOM         MULL.POP.                    LOW.POP.
    1 O             1.000000                     1.000000
    2 H             0.000000                     0.000000
    3 H             0.000000                     0.000000

               ----- POPULATIONS IN EACH AO -----
                             MULLIKEN      LOWDIN
              1  O  1  S      1.99791     1.99660
              2  O  1  S      1.88038     1.69268
              3  O  1  X      1.34115     1.33052
              4  O  1  Y      1.68415     1.67220
              5  O  1  Z      1.00000     1.00000
              6  H  2  S      0.54820     0.65400
              7  H  3  S      0.54820     0.65400

          ----- MULLIKEN ATOMIC OVERLAP POPULATIONS -----
          (OFF-DIAGONAL ELEMENTS NEED TO BE MULTIPLIED BY 2)

             1           2           3

    1    7.4006560
    2    0.2514713   0.3306905
    3    0.2514713  -0.0339611   0.3306905

          TOTAL MULLIKEN AND LOWDIN ATOMIC POPULATIONS
       ATOM         MULL.POP.    CHARGE          LOW.POP.     CHARGE
    1 O             7.903599    0.096401         7.691999    0.308001
    2 H             0.548201    0.451799         0.654000    0.346000
    3 H             0.548201    0.451799         0.654000    0.346000

          -------------------------------
          BOND ORDER AND VALENCE ANALYSIS     BOND ORDER THRESHOLD=0.050
          -------------------------------

                   BOND                       BOND                       BOND
  ATOM PAIR DIST  ORDER      ATOM PAIR DIST  ORDER      ATOM PAIR DIST  ORDER
    1   2  0.957  0.784        1   3  0.957  0.784

                       TOTAL       BONDED        FREE
      ATOM            VALENCE     VALENCE     VALENCE
    1 O                 2.567       1.567       1.000
    2 H                 0.796       0.796      -0.000
    3 H                 0.796       0.796       0.000

          -----------------------------------------
          ATOMIC SPIN DENSITY AT THE NUCLEUS (A.U.)
          -----------------------------------------
                            SPIN DENS    ALPHA DENS     BETA DENS
    1  O            8.0     0.0000000      96.73262      96.73262
    2  H            1.0     0.0000000       0.12664       0.12664
    3  H            1.0     0.0000000       0.12664       0.12664

          ---------------------
          ELECTROSTATIC MOMENTS
          ---------------------

 POINT   1           X           Y           Z (BOHR)    CHARGE
                 0.000000    0.000000    0.000000        1.00 (A.U.)
         DX          DY          DZ         /D/  (DEBYE)
     0.000000    2.693844    0.000000    2.693844
 ...... END OF PROPERTY EVALUATION ......
 STEP CPU TIME =     0.00 TOTAL CPU TIME =        0.0 (    0.0 MIN)
 TOTAL WALL CLOCK TIME=        0.0 SECONDS, CPU UTILIZATION IS 100.00%
               580000  WORDS OF DYNAMIC MEMORY USED
 EXECUTION OF GAMESS TERMINATED NORMALLY Wed Jul 25 14:43:48 2012
 DDI: 263624 bytes (0.3 MB / 0 MWords) used by master data server.

 ----------------------------------------
 CPU timing information for all processes
 ========================================
 0: 0.22 + 0.07 = 0.29
 ----------------------------------------
 ddikick.x: exited gracefully.
----- accounting info -----
Files used on the master node kolmakov.sam.pitt.edu were:
-rw-r--r--  1 albert  staff      162 Jul 25 14:43 /Users/albert/Development/openqube/testfiles/rohf.F05
-rw-r--r--  1 albert  staff  1570560 Jul 25 14:43 /Users/albert/Development/openqube/testfiles/rohf.F10
-rw-r--r--  1 albert  staff     1812 Jul 25 14:43 /Users/albert/Development/openqube/testfiles/rohf.dat
-rw-r--r--  1 albert  staff    22035 Jul 25 14:43 /Users/albert/Development/openqube/testfiles/rohf.gamess
-rw-r--r--  1 albert  staff      162 Jul 25 14:43 /Users/albert/Development/openqube/testfiles/rohf.inp
Wed Jul 25 14:43:51 EDT 2012
0.104u 0.049s 0:03.15 4.4%	0+0k 0+0io 1pf+0w
