 Entering Gaussian System, Link 0=g03
 Initial command:
 /opt/sam/gaussian/g03E.01/g03/l1.exe /scratch/557019.headnode.localdomain/Gau-35145.inp -scrdir=/scratch/557019.headnode.localdomain/
 Entering Link 1 = /opt/sam/gaussian/g03E.01/g03/l1.exe PID=     35146.
  
 Copyright (c) 1988,1990,1992,1993,1995,1998,2003,2004,2007, Gaussian, Inc.
                  All Rights Reserved.
  
 This is the Gaussian(R) 03 program.  It is based on the
 the Gaussian(R) 98 system (copyright 1998, Gaussian, Inc.),
 the Gaussian(R) 94 system (copyright 1995, Gaussian, Inc.),
 the Gaussian 92(TM) system (copyright 1992, Gaussian, Inc.),
 the Gaussian 90(TM) system (copyright 1990, Gaussian, Inc.),
 the Gaussian 88(TM) system (copyright 1988, Gaussian, Inc.),
 the Gaussian 86(TM) system (copyright 1986, Carnegie Mellon
 University), and the Gaussian 82(TM) system (copyright 1983,
 Carnegie Mellon University). Gaussian is a federally registered
 trademark of Gaussian, Inc.
  
 This software contains proprietary and confidential information,
 including trade secrets, belonging to Gaussian, Inc.
  
 This software is provided under written license and may be
 used, copied, transmitted, or stored only in accord with that
 written license.
  
 The following legend is applicable only to US Government
 contracts under FAR:
  
                    RESTRICTED RIGHTS LEGEND
  
 Use, reproduction and disclosure by the US Government is
 subject to restrictions as set forth in subparagraphs (a)
 and (c) of the Commercial Computer Software - Restricted
 Rights clause in FAR 52.227-19.
  
 Gaussian, Inc.
 340 Quinnipiac St., Bldg. 40, Wallingford CT 06492
  
  
 ---------------------------------------------------------------
 Warning -- This program may not be used in any manner that
 competes with the business of Gaussian, Inc. or will provide
 assistance to any competitor of Gaussian, Inc.  The licensee
 of this program is prohibited from giving any competitor of
 Gaussian, Inc. access to this program.  By using this program,
 the user acknowledges that Gaussian, Inc. is engaged in the
 business of creating and licensing software in the field of
 computational chemistry and represents and warrants to the
 licensee that it is not a competitor of Gaussian, Inc. and that
 it will not use this program in any manner prohibited above.
 ---------------------------------------------------------------
  

 Cite this work as:
 Gaussian 03, Revision E.01,
 M. J. Frisch, G. W. Trucks, H. B. Schlegel, G. E. Scuseria, 
 M. A. Robb, J. R. Cheeseman, J. A. Montgomery, Jr., T. Vreven, 
 K. N. Kudin, J. C. Burant, J. M. Millam, S. S. Iyengar, J. Tomasi, 
 V. Barone, B. Mennucci, M. Cossi, G. Scalmani, N. Rega, 
 G. A. Petersson, H. Nakatsuji, M. Hada, M. Ehara, K. Toyota, 
 R. Fukuda, J. Hasegawa, M. Ishida, T. Nakajima, Y. Honda, O. Kitao, 
 H. Nakai, M. Klene, X. Li, J. E. Knox, H. P. Hratchian, J. B. Cross, 
 V. Bakken, C. Adamo, J. Jaramillo, R. Gomperts, R. E. Stratmann, 
 O. Yazyev, A. J. Austin, R. Cammi, C. Pomelli, J. W. Ochterski, 
 P. Y. Ayala, K. Morokuma, G. A. Voth, P. Salvador, J. J. Dannenberg, 
 V. G. Zakrzewski, S. Dapprich, A. D. Daniels, M. C. Strain, 
 O. Farkas, D. K. Malick, A. D. Rabuck, K. Raghavachari, 
 J. B. Foresman, J. V. Ortiz, Q. Cui, A. G. Baboul, S. Clifford, 
 J. Cioslowski, B. B. Stefanov, G. Liu, A. Liashenko, P. Piskorz, 
 I. Komaromi, R. L. Martin, D. J. Fox, T. Keith, M. A. Al-Laham, 
 C. Y. Peng, A. Nanayakkara, M. Challacombe, P. M. W. Gill, 
 B. Johnson, W. Chen, M. W. Wong, C. Gonzalez, and J. A. Pople, 
 Gaussian, Inc., Wallingford CT, 2004.
 
 ******************************************
 Gaussian 03:  AM64L-G03RevE.01 11-Sep-2007
                16-Nov-2012 
 ******************************************
 %chk=uhf.chk
 -------------------------------
 # uhf/sto-3g gfinput IOP(6/7=1)
 -------------------------------
 1/38=1/1;
 2/17=6,18=5,40=1/2;
 3/6=3,11=2,16=1,24=10,25=1,30=1/1,2,3;
 4/7=2/1;
 5/5=2,32=1,38=5/2;
 6/7=1,8=2,9=2,10=2,28=1/1;
 99/5=1,9=1/99;
 -----
 water
 -----
 Symbolic Z-matrix:
 Charge =  1 Multiplicity = 2
 O
 H                    1     0.9572 
 H                    1     0.9572   2     104.5 
 
                          Input orientation:                          
 ---------------------------------------------------------------------
 Center     Atomic     Atomic              Coordinates (Angstroms)
 Number     Number      Type              X           Y           Z
 ---------------------------------------------------------------------
    1          8             0        0.000000    0.000000    0.000000
    2          1             0        0.000000    0.000000    0.957200
    3          1             0        0.926711    0.000000   -0.239664
 ---------------------------------------------------------------------
                    Distance matrix (angstroms):
                    1          2          3
     1  O    0.000000
     2  H    0.957200   0.000000
     3  H    0.957200   1.513696   0.000000
 Stoichiometry    H2O(1+,2)
 Framework group  C2V[C2(O),SGV(H2)]
 Deg. of freedom     2
 Full point group                 C2V
 Largest Abelian subgroup         C2V     NOp   4
 Largest concise Abelian subgroup C2      NOp   2
                         Standard orientation:                         
 ---------------------------------------------------------------------
 Center     Atomic     Atomic              Coordinates (Angstroms)
 Number     Number      Type              X           Y           Z
 ---------------------------------------------------------------------
    1          8             0        0.000000    0.000000    0.117203
    2          1             0        0.000000    0.756848   -0.468812
    3          1             0        0.000000   -0.756848   -0.468812
 ---------------------------------------------------------------------
 Rotational constants (GHZ):    822.1118613    437.7081706    285.6321298
 Standard basis: STO-3G (5D, 7F)
 AO basis set in the form of general basis input:
      1 0
 S   3 1.00       0.000000000000
      0.1307093214D+03  0.1543289673D+00
      0.2380886605D+02  0.5353281423D+00
      0.6443608313D+01  0.4446345422D+00
 SP   3 1.00       0.000000000000
      0.5033151319D+01 -0.9996722919D-01  0.1559162750D+00
      0.1169596125D+01  0.3995128261D+00  0.6076837186D+00
      0.3803889600D+00  0.7001154689D+00  0.3919573931D+00
 ****
      2 0
 S   3 1.00       0.000000000000
      0.3425250914D+01  0.1543289673D+00
      0.6239137298D+00  0.5353281423D+00
      0.1688554040D+00  0.4446345422D+00
 ****
      3 0
 S   3 1.00       0.000000000000
      0.3425250914D+01  0.1543289673D+00
      0.6239137298D+00  0.5353281423D+00
      0.1688554040D+00  0.4446345422D+00
 ****

 There are     4 symmetry adapted basis functions of A1  symmetry.
 There are     0 symmetry adapted basis functions of A2  symmetry.
 There are     1 symmetry adapted basis functions of B1  symmetry.
 There are     2 symmetry adapted basis functions of B2  symmetry.
 Integral buffers will be    131072 words long.
 Raffenetti 2 integral format.
 Two-electron integral symmetry is turned on.
     7 basis functions,    21 primitive gaussians,     7 cartesian basis functions
     5 alpha electrons        4 beta electrons
       nuclear repulsion energy         9.1950120405 Hartrees.
 NAtoms=    3 NActive=    3 NUniq=    2 SFac= 1.69D+00 NAtFMM=   80 NAOKFM=F Big=F
 One-electron integrals computed using PRISM.
 NBasis=     7 RedAO= T  NBF=     4     0     1     2
 NBsUse=     7 1.00D-06 NBFU=     4     0     1     2
 Harris functional with IExCor=  205 diagonalized for initial guess.
 ExpMin= 1.69D-01 ExpMax= 1.31D+02 ExpMxC= 1.31D+02 IAcc=1 IRadAn=         1 AccDes= 1.00D-06
 HarFok:  IExCor= 205 AccDes= 1.00D-06 IRadAn=         1 IDoV=1
 ScaDFX=  1.000000  1.000000  1.000000  1.000000
 Initial guess orbital symmetries:
 Alpha Orbitals:
       Occupied  (A1) (A1) (B2) (A1) (B1)
       Virtual   (A1) (B2)
 Beta  Orbitals:
       Occupied  (A1) (A1) (B2) (A1)
       Virtual   (B1) (A1) (B2)
 The electronic state of the initial guess is 2-B1.
 <S**2> of initial guess= 0.7500
 Warning!  Cutoffs for single-point calculations used.
 Requested convergence on RMS density matrix=1.00D-04 within 128 cycles.
 Requested convergence on MAX density matrix=1.00D-02.
 Requested convergence on             energy=5.00D-05.
 No special actions if energy rises.
 Keep R1 and R2 integrals in memory in canonical form, NReq=      819986.
 Convergence on energy, delta-E=-2.33D-05
 SCF Done:  E(UHF) =  -74.6556968563     A.U. after    5 cycles
             Convg  =    0.2060D-03             -V/T =  2.0219
             S**2   =   0.7552
 Annihilation of the first spin contaminant:
 S**2 before annihilation     0.7552,   after     0.7500

 **********************************************************************

            Population analysis using the SCF density.

 **********************************************************************

 Orbital symmetries:
 Alpha Orbitals:
       Occupied  (A1) (A1) (B2) (B1) (A1)
       Virtual   (A1) (B2)
 Beta  Orbitals:
       Occupied  (A1) (A1) (B2) (A1)
       Virtual   (B1) (A1) (B2)
 The electronic state is 2-B1.
 Alpha  occ. eigenvalues --  -21.03379  -1.92841  -1.20097  -1.11518  -1.06842
 Alpha virt. eigenvalues --    0.08596   0.19985
  Beta  occ. eigenvalues --  -21.00291  -1.75832  -1.15866  -1.00894
  Beta virt. eigenvalues --   -0.22697   0.11830   0.22027
     Alpha Molecular Orbital Coefficients
                           1         2         3         4         5
                        (A1)--O   (A1)--O   (B2)--O   (B1)--O   (A1)--O
     EIGENVALUES --   -21.03379  -1.92841  -1.20097  -1.11518  -1.06842
   1 1   O  1S          0.99408  -0.24533   0.00000   0.00000  -0.08442
   2        2S          0.02678   0.91536   0.00000   0.00000   0.42096
   3        2PX         0.00000   0.00000   0.00000   1.00000   0.00000
   4        2PY         0.00000   0.00000   0.74125   0.00000   0.00000
   5        2PZ        -0.00427  -0.17283   0.00000   0.00000   0.85841
   6 2   H  1S         -0.00598   0.08625   0.32114   0.00000  -0.18650
   7 3   H  1S         -0.00598   0.08625  -0.32114   0.00000  -0.18650
                           6         7
                        (A1)--V   (B2)--V
     EIGENVALUES --     0.08596   0.19985
   1 1   O  1S         -0.12311   0.00000
   2        2S          0.86637   0.00000
   3        2PX         0.00000   0.00000
   4        2PY         0.00000   0.89417
   5        2PZ        -0.63600   0.00000
   6 2   H  1S         -0.83403  -0.89350
   7 3   H  1S         -0.83403   0.89350
     Beta Molecular Orbital Coefficients.
                           1         2         3         4         5
                        (A1)--O   (A1)--O   (B2)--O   (A1)--O   (B1)--V
     EIGENVALUES --   -21.00291  -1.75832  -1.15866  -1.00894  -0.22697
   1 1   O  1S          0.99467  -0.23245   0.00000  -0.09725   0.00000
   2        2S          0.02419   0.84773   0.00000   0.47646   0.00000
   3        2PX         0.00000   0.00000   0.00000   0.00000   1.00000
   4        2PY         0.00000   0.00000   0.69761   0.00000   0.00000
   5        2PZ        -0.00394  -0.18051   0.00000   0.84054   0.00000
   6 2   H  1S         -0.00542   0.13844   0.36353  -0.19299   0.00000
   7 3   H  1S         -0.00542   0.13844  -0.36353  -0.19299   0.00000
                           6         7
                        (A1)--V   (B2)--V
     EIGENVALUES --     0.11830   0.22027
   1 1   O  1S         -0.13340   0.00000
   2        2S          0.90563   0.00000
   3        2PX         0.00000   0.00000
   4        2PY         0.00000   0.92862
   5        2PZ        -0.65737   0.00000
   6 2   H  1S         -0.82548  -0.87711
   7 3   H  1S         -0.82548   0.87711
          Condensed to atoms (all electrons):
              1          2          3
     1  O    7.398039   0.250695   0.250695
     2  H    0.250695   0.333981  -0.034392
     3  H    0.250695  -0.034392   0.333981
 Mulliken atomic charges:
              1
     1  O    0.100570
     2  H    0.449715
     3  H    0.449715
 Sum of Mulliken charges=   1.00000
 Atomic charges with hydrogens summed into heavy atoms:
              1
     1  O    1.000000
     2  H    0.000000
     3  H    0.000000
 Sum of Mulliken charges=   1.00000
          Atomic-Atomic Spin Densities.
              1          2          3
     1  O    1.155933  -0.019249  -0.019249
     2  H   -0.019249  -0.043205   0.003737
     3  H   -0.019249   0.003737  -0.043205
 Mulliken atomic spin densities:
              1
     1  O    1.117435
     2  H   -0.058718
     3  H   -0.058718
 Sum of Mulliken spin densities=   1.00000
 Electronic spatial extent (au):  <R**2>=    14.4718
 Charge=     1.0000 electrons
 Dipole moment (field-independent basis, Debye):
    X=     0.0000    Y=     0.0000    Z=    -2.4628  Tot=     2.4628
 Quadrupole moment (field-independent basis, Debye-Ang):
   XX=    -4.6765   YY=    -2.4116   ZZ=    -4.2350
   XY=     0.0000   XZ=     0.0000   YZ=     0.0000
 Traceless Quadrupole moment (field-independent basis, Debye-Ang):
   XX=    -0.9021   YY=     1.3627   ZZ=    -0.4607
   XY=     0.0000   XZ=     0.0000   YZ=     0.0000
 Octapole moment (field-independent basis, Debye-Ang**2):
  XXX=     0.0000  YYY=     0.0000  ZZZ=    -1.0535  XYY=     0.0000
  XXY=     0.0000  XXZ=    -0.0873  XZZ=     0.0000  YZZ=     0.0000
  YYZ=    -1.4848  XYZ=     0.0000
 Hexadecapole moment (field-independent basis, Debye-Ang**3):
 XXXX=    -2.3003 YYYY=    -3.7142 ZZZZ=    -3.7781 XXXY=     0.0000
 XXXZ=     0.0000 YYYX=     0.0000 YYYZ=     0.0000 ZZZX=     0.0000
 ZZZY=     0.0000 XXYY=    -1.2987 XXZZ=    -1.0553 YYZZ=    -0.8703
 XXYZ=     0.0000 YYXZ=     0.0000 ZZXY=     0.0000
 N-N= 9.195012040481D+00 E-N=-1.894824420251D+02  KE= 7.305654725460D+01
 Symmetry A1   KE= 6.711207793275D+01
 Symmetry A2   KE= 0.000000000000D+00
 Symmetry B1   KE= 2.528731226009D+00
 Symmetry B2   KE= 3.415738095832D+00
 Orbital energies and kinetic energies (alpha):
                           1         2
       1  (A1)--O     -21.03379  28.65226
       2  (A1)--O      -1.92841   2.63634
       3  (B2)--O      -1.20097   1.75845
       4  (B1)--O      -1.11518   2.52873
       5  (A1)--O      -1.06842   2.34954
       6  (A1)--V       0.08596   2.43203
       7  (B2)--V       0.19985   2.50345
 Orbital energies and kinetic energies (beta):
                           1         2
       1  (A1)--O     -21.00291  28.68735
       2  (A1)--O      -1.75832   2.40401
       3  (B2)--O      -1.15866   1.65729
       4  (A1)--O      -1.00894   2.38259
       5  (B1)--V      -0.22697   2.52873
       6  (A1)--V       0.11830   2.59623
       7  (B2)--V       0.22027   2.60462
 Total kinetic energy from orbitals= 7.305654725460D+01
                          Isotropic Fermi Contact Couplings
        Atom                 a.u.       MegaHertz       Gauss      10(-4) cm-1
     1  O(17)              0.18551    -112.45703     -40.12746     -37.51163
     2  H(1)              -0.02055     -91.85285     -32.77538     -30.63881
     3  H(1)              -0.02055     -91.85285     -32.77538     -30.63881
 --------------------------------------------------------
       Center         ----  Spin Dipole Couplings  ----
                      3XX-RR        3YY-RR        3ZZ-RR
 --------------------------------------------------------
     1   Atom        2.727279     -1.298938     -1.428342
     2   Atom       -0.067849      0.078905     -0.011056
     3   Atom       -0.067849      0.078905     -0.011056
 --------------------------------------------------------
                        XY            XZ            YZ
 --------------------------------------------------------
     1   Atom        0.000000      0.000000      0.000000
     2   Atom        0.000000      0.000000     -0.172267
     3   Atom        0.000000      0.000000      0.172267
 --------------------------------------------------------


 ---------------------------------------------------------------------------------
              Anisotropic Spin Dipole Couplings in Principal Axis System
 ---------------------------------------------------------------------------------

       Atom             a.u.   MegaHertz   Gauss  10(-4) cm-1        Axes

              Baa    -1.4283   103.354    36.879    34.475  0.0000  0.0000  1.0000
     1 O(17)  Bbb    -1.2989    93.990    33.538    31.352  0.0000  1.0000  0.0000
              Bcc     2.7273  -197.344   -70.417   -65.827  1.0000  0.0000  0.0000
 
              Baa    -0.1441   -76.895   -27.438   -25.649  0.0000  0.6113  0.7914
     2 H(1)   Bbb    -0.0678   -36.201   -12.917   -12.075  1.0000  0.0000  0.0000
              Bcc     0.2120   113.095    40.355    37.725  0.0000  0.7914 -0.6113
 
              Baa    -0.1441   -76.895   -27.438   -25.649  0.0000 -0.6113  0.7914
     3 H(1)   Bbb    -0.0678   -36.201   -12.917   -12.075  1.0000  0.0000  0.0000
              Bcc     0.2120   113.095    40.355    37.725  0.0000  0.7914  0.6113
 

 ---------------------------------------------------------------------------------


 Test job not archived.
 1\1\GINC-N4\SP\UHF\STO-3G\H2O1(1+,2)\DEFUSCO\16-Nov-2012\0\\# uhf/sto-
 3g gfinput IOP(6/7=1)\\water\\1,2\O\H,1,0.9572\H,1,0.9572,2,104.5\\Ver
 sion=AM64L-G03RevE.01\State=2-B1\HF=-74.6556969\S2=0.755177\S2-1=0.\S2
 A=0.750015\RMSD=2.060e-04\Thermal=0.\Dipole=0.7661334,0.,0.5932038\PG=
 C02V [C2(O1),SGV(H2)]\\@


 FIREWORKS ENDED
 AND SPECTATORS GONE AWAY....
 AH, HOW VAST AND DARK
                     SHIKI
 Job cpu time:  0 days  0 hours  0 minutes  2.4 seconds.
 File lengths (MBytes):  RWF=     13 Int=      0 D2E=      0 Chk=      9 Scr=      1
 Normal termination of Gaussian 03 at Fri Nov 16 14:53:47 2012.
