----- GAMESS execution script -----
This job is running on host kolmakov.sam.pitt.edu
under operating system Darwin at Mon Sep 10 15:01:32 EDT 2012
Available scratch disk space (Kbyte units) at beginning of the job is
Filesystem   1024-blocks      Used Available Capacity  Mounted on
/dev/disk0s2   731734976 121236212 610242764    17%    /

 Distributed Data Interface kickoff program.
 Initiating 1 compute processes on 1 nodes to run the following command:
 /Users/albert/Development/gamess/master/gamess.master.x uhf 

          ******************************************************
          *         GAMESS VERSION = 11 AUG 2011 (R1)          *
          *             FROM IOWA STATE UNIVERSITY             *
          * M.W.SCHMIDT, K.K.BALDRIDGE, J.A.BOATZ, S.T.ELBERT, *
          *   M.S.GORDON, J.H.JENSEN, S.KOSEKI, N.MATSUNAGA,   *
          *          K.A.NGUYEN, S.J.SU, T.L.WINDUS,           *
          *       TOGETHER WITH M.DUPUIS, J.A.MONTGOMERY       *
          *         J.COMPUT.CHEM.  14, 1347-1363(1993)        *
          **************** 64 BIT APPLE VERSION ****************

  SINCE 1993, STUDENTS AND POSTDOCS WORKING AT IOWA STATE UNIVERSITY
  AND ALSO IN THEIR VARIOUS JOBS AFTER LEAVING ISU HAVE MADE IMPORTANT
  CONTRIBUTIONS TO THE CODE:
     IVANA ADAMOVIC, CHRISTINE AIKENS, YURI ALEXEEV, POOJA ARORA,
     ANDREY ASADCHEV, ROB BELL, PRADIPTA BANDYOPADHYAY, JONATHAN BENTZ,
     BRETT BODE, GALINA CHABAN, WEI CHEN, CHEOL HO CHOI, PAUL DAY,
     ALBERT DEFUSCO, TIM DUDLEY, DMITRI FEDOROV, GRAHAM FLETCHER,
     MARK FREITAG, KURT GLAESEMANN, DAN KEMP, GRANT MERRILL,
     NORIYUKI MINEZAWA, JONATHAN MULLIN, TAKESHI NAGATA,
     SEAN NEDD, HEATHER NETZLOFF, BOSILJKA NJEGIC, RYAN OLSON, MIKE PAK,
     JIM SHOEMAKER, LYUDMILA SLIPCHENKO, SAROM SOK, JIE SONG,
     TETSUYA TAKETSUGU, SIMON WEBB, SOOHAENG YOO, FEDERICO ZAHARIEV

  ADDITIONAL CODE HAS BEEN PROVIDED BY COLLABORATORS IN OTHER GROUPS:
     IOWA STATE UNIVERSITY:
          JOE IVANIC, LAIMUTIS BYTAUTAS, KLAUS RUEDENBERG
     UNIVERSITY OF TOKYO: KIMIHIKO HIRAO, TAKAHITO NAKAJIMA,
          TAKAO TSUNEDA, MUNEAKI KAMIYA, SUSUMU YANAGISAWA,
          KIYOSHI YAGI, MAHITO CHIBA, SEIKEN TOKURA, NAOAKI KAWAKAMI
     UNIVERSITY OF AARHUS: FRANK JENSEN
     UNIVERSITY OF IOWA: VISVALDAS KAIRYS, HUI LI
     NATIONAL INST. OF STANDARDS AND TECHNOLOGY: WALT STEVENS, DAVID GARMER
     UNIVERSITY OF PISA: BENEDETTA MENNUCCI, JACOPO TOMASI
     UNIVERSITY OF MEMPHIS: HENRY KURTZ, PRAKASHAN KORAMBATH
     UNIVERSITY OF ALBERTA: TOBY ZENG, MARIUSZ KLOBUKOWSKI
     UNIVERSITY OF NEW ENGLAND: MARK SPACKMAN
     MIE UNIVERSITY: HIROAKI UMEDA
     MICHIGAN STATE UNIVERSITY:
          KAROL KOWALSKI, MARTA WLOCH, JEFFREY GOUR, JESSE LUTZ, PIOTR PIECUCH
     UNIVERSITY OF SILESIA: MONIKA MUSIAL, STANISLAW KUCHARSKI
     FACULTES UNIVERSITAIRES NOTRE-DAME DE LA PAIX:
          OLIVIER QUINET, BENOIT CHAMPAGNE
     UNIVERSITY OF CALIFORNIA - SANTA BARBARA: BERNARD KIRTMAN
     INSTITUTE FOR MOLECULAR SCIENCE:
          KAZUYA ISHIMURA, MICHIO KATOUDA, AND SHIGERU NAGASE
     UNIVERSITY OF NOTRE DAME: DAN CHIPMAN
     KYUSHU UNIVERSITY:
          HARUYUKI NAKANO,
          FENG LONG GU, JACEK KORCHOWIEC, MARCIN MAKOWSKI, AND YURIKO AOKI,
          HIROTOSHI MORI AND EISAKU MIYOSHI
     PENNSYLVANIA STATE UNIVERSITY:
          TZVETELIN IORDANOV, CHET SWALINA, JONATHAN SKONE,
          SHARON HAMMES-SCHIFFER
     WASEDA UNIVERSITY:
          MASATO KOBAYASHI, TOMOKO AKAMA, TSUGUKI TOUMA,
          TAKESHI YOSHIKAWA, YASUHIRO IKABATA, HIROMI NAKAI
     UNIVERSITY OF NEBRASKA:
          PEIFENG SU, DEJUN SI, NANDUN THELLAMUREGE, YALI WANG, HUI LI
     UNIVERSITY OF ZURICH:
          ROBERTO PEVERATI, KIM BALDRIDGE
     N. COPERNICUS UNIVERSITY AND JACKSON STATE UNIVERSITY:
          MARIA BARYSZ

 EXECUTION OF GAMESS BEGUN Mon Sep 10 15:01:32 2012

            ECHO OF THE FIRST FEW INPUT CARDS -
 INPUT CARD> $contrl nprint=9 icharg=1 mult=2 scftyp=uhf coord=zmt $end                     
 INPUT CARD> $scf dirscf=.t. $end                                                           
 INPUT CARD> $basis gbasis=sto ngauss=3 $end                                                
 INPUT CARD> $data                                                                          
 INPUT CARD>water                                                                           
 INPUT CARD>c1                                                                              
 INPUT CARD>O                                                                               
 INPUT CARD>H 1 0.9572                                                                      
 INPUT CARD>H 1 0.9572 2 105.4                                                              
 INPUT CARD>                                                                                
 INPUT CARD> $end                                                                           
    1000000 WORDS OF MEMORY AVAILABLE

     BASIS OPTIONS
     -------------
     GBASIS=STO          IGAUSS=       3      POLAR=NONE    
     NDFUNC=       0     NFFUNC=       0     DIFFSP=       F
     NPFUNC=       0      DIFFS=       F     BASNAM=        


     RUN TITLE
     ---------
 water                                                                           

 THE POINT GROUP OF THE MOLECULE IS C1      
 THE ORDER OF THE PRINCIPAL AXIS IS     0

 YOUR FULLY SUBSTITUTED Z-MATRIX IS
 O   
 H      1   0.9572000
 H      1   0.9572000  2  105.4000

 THE MOMENTS OF INERTIA ARE (AMU-ANGSTROM**2)
 IXX=     0.602   IYY=     1.169   IZZ=     1.771

 ATOM      ATOMIC                      COORDINATES (BOHR)
           CHARGE         X                   Y                   Z
 O           8.0     0.0000000000       -0.1226743436        0.0000000000
 H           1.0     1.4388887976        0.9734651778        0.0000000000
 H           1.0    -1.4388887976        0.9734651778        0.0000000000

          INTERNUCLEAR DISTANCES (ANGS.)
          ------------------------------

                1 O          2 H          3 H     

   1 O       0.0000000    0.9572000 *  0.9572000 *
   2 H       0.9572000 *  0.0000000    1.5228544 *
   3 H       0.9572000 *  1.5228544 *  0.0000000  

  * ... LESS THAN  3.000


     ATOMIC BASIS SET
     ----------------
 THE CONTRACTED PRIMITIVE FUNCTIONS HAVE BEEN UNNORMALIZED
 THE CONTRACTED BASIS FUNCTIONS ARE NOW NORMALIZED TO UNITY

  SHELL TYPE  PRIMITIVE        EXPONENT          CONTRACTION COEFFICIENT(S)

 O         

      1   S       1           130.7093214    0.154328967295
      1   S       2            23.8088661    0.535328142282
      1   S       3             6.4436083    0.444634542185

      2   L       4             5.0331513   -0.099967229187    0.155916274999
      2   L       5             1.1695961    0.399512826089    0.607683718598
      2   L       6             0.3803890    0.700115468880    0.391957393099

 H         

      3   S       7             3.4252509    0.154328967295
      3   S       8             0.6239137    0.535328142282
      3   S       9             0.1688554    0.444634542185

 H         

      4   S      10             3.4252509    0.154328967295
      4   S      11             0.6239137    0.535328142282
      4   S      12             0.1688554    0.444634542185

 TOTAL NUMBER OF BASIS SET SHELLS             =    4
 NUMBER OF CARTESIAN GAUSSIAN BASIS FUNCTIONS =    7
 NUMBER OF ELECTRONS                          =    9
 CHARGE OF MOLECULE                           =    1
 SPIN MULTIPLICITY                            =    2
 NUMBER OF OCCUPIED ORBITALS (ALPHA)          =    5
 NUMBER OF OCCUPIED ORBITALS (BETA )          =    4
 TOTAL NUMBER OF ATOMS                        =    3
 THE NUCLEAR REPULSION ENERGY IS        9.1929103318

     $CONTRL OPTIONS
     ---------------
 SCFTYP=UHF          RUNTYP=ENERGY       EXETYP=RUN     
 MPLEVL=       0     CITYP =NONE         CCTYP =NONE         VBTYP =NONE    
 DFTTYP=NONE         TDDFT =NONE    
 MULT  =       2     ICHARG=       1     NZVAR =       0     COORD =ZMT     
 PP    =NONE         RELWFN=NONE         LOCAL =NONE         NUMGRD=       F
 ISPHER=      -1     NOSYM =       0     MAXIT =      30     UNITS =ANGS    
 PLTORB=       F     MOLPLT=       F     AIMPAC=       F     FRIEND=        
 NPRINT=       9     IREST =       0     GEOM  =INPUT   
 NORMF =       0     NORMP =       0     ITOL  =      20     ICUT  =       9
 INTTYP=BEST         GRDTYP=BEST         QMTTOL= 1.0E-06

     $SYSTEM OPTIONS
     ---------------
  REPLICATED MEMORY=     1000000 WORDS (ON EVERY NODE).
 DISTRIBUTED MEMDDI=           0 MILLION WORDS IN AGGREGATE,
 MEMDDI DISTRIBUTED OVER   1 PROCESSORS IS           0 WORDS/PROCESSOR.
 TOTAL MEMORY REQUESTED ON EACH PROCESSOR=     1000000 WORDS.
 TIMLIM=      525600.00 MINUTES, OR     365.0 DAYS.
 PARALL= F  BALTYP=  DLB     KDIAG=    0  COREFL= F
 MXSEQ2=     300 MXSEQ3=     150

          ----------------
          PROPERTIES INPUT
          ----------------

     MOMENTS            FIELD           POTENTIAL          DENSITY
 IEMOM =       1   IEFLD =       0   IEPOT =       0   IEDEN =       0
 WHERE =COMASS     WHERE =NUCLEI     WHERE =NUCLEI     WHERE =NUCLEI  
 OUTPUT=BOTH       OUTPUT=BOTH       OUTPUT=BOTH       OUTPUT=BOTH    
 IEMINT=       0   IEFINT=       0                     IEDINT=       0
                                                       MORB  =       0
          EXTRAPOLATION IN EFFECT
 ORBITAL PRINTING OPTION: NPREO=     1     7     2     1

     -------------------------------
     INTEGRAL TRANSFORMATION OPTIONS
     -------------------------------
     NWORD  =            0
     CUTOFF = 1.0E-09     MPTRAN =       0
     DIRTRF =       T     AOINTS =DUP     

          ----------------------
          INTEGRAL INPUT OPTIONS
          ----------------------
 NOPK  =       1 NORDER=       0 SCHWRZ=       T

   --- ENCODED Z MATRIX ---
 COORD  TYPE   I   J   K   L   M   N
    1      1    2   1
    2      1    3   1
    3      2    3   1   2

 THE DETERMINANT OF THE G MATRIX IS 10**(    -1)

     ------------------------------------------
     THE POINT GROUP IS C1 , NAXIS= 0, ORDER= 1
     ------------------------------------------

     DIMENSIONS OF THE SYMMETRY SUBSPACES ARE
 A   =    7

 ..... DONE SETTING UP THE RUN .....
 STEP CPU TIME =     0.01 TOTAL CPU TIME =        0.0 (    0.0 MIN)
 TOTAL WALL CLOCK TIME=        0.5 SECONDS, CPU UTILIZATION IS   1.96%

          ********************
          1 ELECTRON INTEGRALS
          ********************
 ...... END OF ONE-ELECTRON INTEGRALS ......
 STEP CPU TIME =     0.00 TOTAL CPU TIME =        0.0 (    0.0 MIN)
 TOTAL WALL CLOCK TIME=        0.5 SECONDS, CPU UTILIZATION IS   1.92%

          -------------
          GUESS OPTIONS
          -------------
          GUESS =HUCKEL            NORB  =       0          NORDER=       0
          MIX   =       F          PRTMO =       F          PUNMO =       F
          TOLZ  = 1.0E-08          TOLE  = 1.0E-05
          SYMDEN=       F          PURIFY=       F

 INITIAL GUESS ORBITALS GENERATED BY HUCKEL   ROUTINE.
 HUCKEL GUESS REQUIRES      2569 WORDS.

 SYMMETRIES FOR INITIAL GUESS ORBITALS FOLLOW.  ALPHA SET(S).
     5 ORBITALS ARE OCCUPIED (    1 CORE ORBITALS).
     2=A        3=A        4=A        5=A        6=A        7=A   

 SYMMETRIES FOR INITIAL GUESS ORBITALS FOLLOW.   BETA SET(S).
     4 ORBITALS ARE OCCUPIED (    1 CORE ORBITALS).
     2=A        3=A        4=A        5=A        6=A        7=A   
 ...... END OF INITIAL ORBITAL SELECTION ......
 STEP CPU TIME =     0.01 TOTAL CPU TIME =        0.0 (    0.0 MIN)
 TOTAL WALL CLOCK TIME=        0.6 SECONDS, CPU UTILIZATION IS   3.45%

                    ----------------------
                    AO INTEGRAL TECHNOLOGY
                    ----------------------
     S,P,L SHELL ROTATED AXIS INTEGRALS, REPROGRAMMED BY
        KAZUYA ISHIMURA (IMS) AND JOSE SIERRA (SYNSTAR).
     S,P,D,L SHELL ROTATED AXIS INTEGRALS PROGRAMMED BY
        KAZUYA ISHIMURA (INSTITUTE FOR MOLECULAR SCIENCE).
     S,P,D,F,G SHELL TO TOTAL QUARTET ANGULAR MOMENTUM SUM 5,
        ERIC PROGRAM BY GRAHAM FLETCHER (ELORET AND NASA ADVANCED
        SUPERCOMPUTING DIVISION, AMES RESEARCH CENTER).
     S,P,D,F,G,L SHELL GENERAL RYS QUADRATURE PROGRAMMED BY
        MICHEL DUPUIS (PACIFIC NORTHWEST NATIONAL LABORATORY).

          --------------------
          2 ELECTRON INTEGRALS
          --------------------

 DIRECT SCF METHOD SKIPS INTEGRAL STORAGE ON DISK.
 DIRECT TRANSFORMATION SKIPS AO INTEGRAL STORAGE ON DISK.
  ...... END OF TWO-ELECTRON INTEGRALS .....
 STEP CPU TIME =     0.02 TOTAL CPU TIME =        0.0 (    0.0 MIN)
 TOTAL WALL CLOCK TIME=        0.7 SECONDS, CPU UTILIZATION IS   6.06%

          ---------------------------
                  UHF SCF CALCULATION
          ---------------------------

     NUCLEAR ENERGY =         9.1929103318
     MAXIT = 30     NPUNCH=  2     MULT=  2
     EXTRAP=T  DAMP=F  SHIFT=F  RSTRCT=F  DIIS=F  SOSCF=F
     DENSITY MATRIX CONV=  2.00E-05
     MEMORY REQUIRED FOR UHF/ROHF ITERS=     44978 WORDS.

 DIRECT SCF CALCULATION, SCHWRZ=T   FDIFF=T
 SCHWARZ INEQUALITY OVERHEAD:        28 INTEGRALS, T=        0.00

                                                                                NONZERO     BLOCKS
 ITER EX      TOTAL ENERGY        E CHANGE  DENSITY CHANGE    DIIS ERROR      INTEGRALS    SKIPPED
   1  0      -74.4024235618   -74.4024235618   0.681587454   0.000000000            228          0
   2  1      -74.6468370613    -0.2444134995   0.130691936   0.000000000            228          0
   3  2      -74.6552035500    -0.0083664887   0.039833211   0.000000000            228          0
   4  3      -74.6559358237    -0.0007322737   0.012054566   0.000000000            228          0
   5  0      -74.6560420665    -0.0001062428   0.017950756   0.000000000            228          0
   6  1      -74.6560544258    -0.0000123593   0.005825315   0.000000000            228          0
   7  2      -74.6560766488    -0.0000222230   0.001146259   0.000000000            228          0
   8  3      -74.6560781031    -0.0000014544   0.000638838   0.000000000            228          0
   9  0      -74.6560784700    -0.0000003668   0.000839385   0.000000000            228          0
  10  1      -74.6560786338    -0.0000001638   0.000076390   0.000000000            228          0
  11  2      -74.6560786395    -0.0000000057   0.000031198   0.000000000            228          0
  12  3      -74.6560786404    -0.0000000009   0.000016340   0.000000000            228          0
  13  4      -74.6560786407    -0.0000000003   0.000009052   0.000000000            228          0

          -----------------
          DENSITY CONVERGED
          -----------------
     TIME TO FORM FOCK OPERATORS=       0.0 SECONDS (       0.0 SEC/ITER)
     FOCK TIME ON FIRST ITERATION=       0.0, LAST ITERATION=       0.0
     TIME TO SOLVE SCF EQUATIONS=       0.0 SECONDS (       0.0 SEC/ITER)

 FINAL UHF ENERGY IS      -74.6560786407 AFTER  13 ITERATIONS

          --------------------
          SPIN SZ   =    0.500
          S-SQUARED =    0.755
          --------------------

  ----- ALPHA SET ----- 

          ------------
          EIGENVECTORS
          ------------

                      1          2          3          4          5
                  -21.0326    -1.9272    -1.2021    -1.1146    -1.0667
                     A          A          A          A          A   
    1  O  1  S    0.994074  -0.245434  -0.000000  -0.000000   0.083765
    2  O  1  S    0.026789   0.915763  -0.000000  -0.000000  -0.417804
    3  O  1  X   -0.000000  -0.000000   0.740375  -0.000000  -0.000000
    4  O  1  Y    0.004233   0.171432  -0.000000  -0.000000   0.860751
    5  O  1  Z   -0.000000  -0.000000  -0.000000   1.000000  -0.000000
    6  H  2  S   -0.005989   0.086267   0.320704  -0.000000   0.185232
    7  H  3  S   -0.005989   0.086267  -0.320704  -0.000000   0.185232

                      6          7
                    0.0852     0.2022
                     A          A   
    1  O  1  S   -0.123426   0.000000
    2  O  1  S    0.868047   0.000000
    3  O  1  X    0.000000   0.896920
    4  O  1  Y    0.630649   0.000000
    5  O  1  Z    0.000000   0.000000
    6  H  2  S   -0.834928  -0.892799
    7  H  3  S   -0.834928   0.892799

          --------------
          DENSITY MATRIX
          --------------

                      1          2          3          4          5

    1  O  1  S    1.055437
    2  O  1  S   -0.233127   1.013900
    3  O  1  X    0.000000   0.000000   0.548155
    4  O  1  Y    0.034234  -0.202520   0.000000   0.770299
    5  O  1  Z    0.000000   0.000000   0.000000   0.000000   1.000000
    6  H  2  S   -0.011610   0.001449   0.237441   0.174202   0.000000
    7  H  3  S   -0.011610   0.001449  -0.237441   0.174202   0.000000

                      6          7

    6  H  2  S    0.144640
    7  H  3  S   -0.061063   0.144640

  ----- BETA SET ----- 

          ------------
          EIGENVECTORS
          ------------

                      1          2          3          4          5
                  -21.0017    -1.7569    -1.1600    -1.0072    -0.2263
                     A          A          A          A          A   
    1  O  1  S    0.994669  -0.232594   0.000000   0.096504   0.000000
    2  O  1  S    0.024198   0.848292   0.000000  -0.473041   0.000000
    3  O  1  X   -0.000000  -0.000000   0.696756  -0.000000   0.000000
    4  O  1  Y    0.003909   0.178876   0.000000   0.842985   0.000000
    5  O  1  Z   -0.000000  -0.000000   0.000000  -0.000000   1.000000
    6  H  2  S   -0.005428   0.138502   0.362919   0.191990   0.000000
    7  H  3  S   -0.005428   0.138502  -0.362919   0.191990   0.000000

                      6          7
                    0.1175     0.2227
                     A          A   
    1  O  1  S   -0.133758  -0.000000
    2  O  1  S    0.907443  -0.000000
    3  O  1  X    0.000000   0.931210
    4  O  1  Y    0.652213  -0.000000
    5  O  1  Z    0.000000  -0.000000
    6  H  2  S   -0.826330  -0.876488
    7  H  3  S   -0.826330   0.876488

          --------------
          DENSITY MATRIX
          --------------

                      1          2          3          4          5

    1  O  1  S    1.052780
    2  O  1  S   -0.218889   0.943953
    3  O  1  X    0.000000   0.000000   0.485469
    4  O  1  Y    0.043634  -0.246933   0.000000   0.742636
    5  O  1  Z    0.000000   0.000000   0.000000   0.000000   0.000000
    6  H  2  S   -0.019086   0.026539   0.252866   0.186598   0.000000
    7  H  3  S   -0.019086   0.026539  -0.252866   0.186598   0.000000

                      6          7

    6  H  2  S    0.187783
    7  H  3  S   -0.075638   0.187783
 ...... END OF UHF CALCULATION ......
 STEP CPU TIME =     0.00 TOTAL CPU TIME =        0.0 (    0.0 MIN)
 TOTAL WALL CLOCK TIME=        0.7 SECONDS, CPU UTILIZATION IS   5.80%

     ----------------------------------------------------------------
     PROPERTY VALUES FOR THE UHF   SELF-CONSISTENT FIELD WAVEFUNCTION
     ----------------------------------------------------------------

          -----------------
          ENERGY COMPONENTS
          -----------------

         WAVEFUNCTION NORMALIZATION =       1.0000000000

                ONE ELECTRON ENERGY =    -116.4291016168
                TWO ELECTRON ENERGY =      32.5801126443
           NUCLEAR REPULSION ENERGY =       9.1929103318
                                      ------------------
                       TOTAL ENERGY =     -74.6560786407

 ELECTRON-ELECTRON POTENTIAL ENERGY =      32.5801126443
  NUCLEUS-ELECTRON POTENTIAL ENERGY =    -189.4865167419
   NUCLEUS-NUCLEUS POTENTIAL ENERGY =       9.1929103318
                                      ------------------
             TOTAL POTENTIAL ENERGY =    -147.7134937658
               TOTAL KINETIC ENERGY =      73.0574151252
                 VIRIAL RATIO (V/T) =       2.0218822896

  ...... PI ENERGY ANALYSIS ......

 ENERGY ANALYSIS:
            FOCK ENERGY=    -51.2688770846
          BARE H ENERGY=   -116.4291016168
     ELECTRONIC ENERGY =    -83.8489893507
         KINETIC ENERGY=     73.0574151252
          N-N REPULSION=      9.1929103318
           TOTAL ENERGY=    -74.6560790189
        SIGMA PART(1+2)=    -79.5628821979
               (K,V1,2)=     70.5286838992   -179.5001228720     29.4085567749
           PI PART(1+2)=     -4.2861071527
               (K,V1,2)=      2.5287312260     -9.9863938699      3.1715554912
  SIGMA SKELETON, ERROR=    -70.3699718662      0.0000000000
             MIXED PART= 0.00000E+00 0.00000E+00 0.00000E+00 0.00000E+00
 ...... END OF PI ENERGY ANALYSIS ......

          ----------------------------------------------------------
          LOWDIN ORBITAL (VO(I,J)**2)*SIGN(VO(I,J))   ALPHA ORBITALS
          ----------------------------------------------------------

                      1          2          3          4          5

                  -21.0326    -1.9272    -1.2021    -1.1146    -1.0667

    1  O  1  S   -0.979737   0.017329   0.000000  -0.000000  -0.001436
    2  O  1  S   -0.019927  -0.740496   0.000000  -0.000000   0.100100
    3  O  1  X    0.000000  -0.000000  -0.687483  -0.000000  -0.000000
    4  O  1  Y   -0.000005  -0.026182   0.000000  -0.000000  -0.819272
    5  O  1  Z   -0.000000  -0.000000  -0.000000  -1.000000  -0.000000
    6  H  2  S   -0.000166  -0.107996  -0.156259   0.000000  -0.039596
    7  H  3  S   -0.000166  -0.107996   0.156259   0.000000  -0.039596

                      6          7

                    0.0852     0.2022

    1  O  1  S   -0.001499   0.000000
    2  O  1  S    0.139476  -0.000000
    3  O  1  X    0.000000   0.312517
    4  O  1  Y    0.154541  -0.000000
    5  O  1  Z    0.000000   0.000000
    6  H  2  S   -0.352242  -0.343741
    7  H  3  S   -0.352242   0.343741

          ------------------------
          LOWDIN BOND ORDER MATRIX
          ------------------------

                      1          2          3          4          5

    1  O  1  S    0.998501
    2  O  1  S    0.000000   0.860524
    3  O  1  X    0.000000   0.000000   0.687483
    4  O  1  Y    0.000000   0.000000   0.000000   0.845459
    5  O  1  Z    0.000000   0.000000   0.000000   0.000000   1.000000
    6  H  2  S    0.000000   0.000000   0.000000   0.000000   0.000000
    7  H  3  S    0.000000   0.000000   0.000000   0.000000   0.000000

                      6          7

    6  H  2  S    0.304017
    7  H  3  S    0.000000   0.304017

          ---------------------------------------------------------
          LOWDIN ORBITAL (VO(I,J)**2)*SIGN(VO(I,J))   BETA ORBITALS
          ---------------------------------------------------------

                      1          2          3          4          5

                  -21.0017    -1.7569    -1.1600    -1.0072    -0.2263

    1  O  1  S   -0.980319   0.015800  -0.000000  -0.001942   0.000000
    2  O  1  S   -0.019348  -0.679102   0.000000   0.131448   0.000000
    3  O  1  X    0.000000  -0.000000   0.642467   0.000000   0.000000
    4  O  1  Y   -0.000005  -0.033784   0.000000  -0.793794   0.000000
    5  O  1  Z   -0.000000  -0.000000   0.000000  -0.000000   1.000000
    6  H  2  S   -0.000164  -0.135657   0.178766  -0.036408  -0.000000
    7  H  3  S   -0.000164  -0.135657  -0.178766  -0.036408  -0.000000

                      6          7

                    0.1175     0.2227

    1  O  1  S   -0.001939  -0.000000
    2  O  1  S    0.170101   0.000000
    3  O  1  X    0.000000  -0.357533
    4  O  1  Y    0.172418   0.000000
    5  O  1  Z    0.000000  -0.000000
    6  H  2  S   -0.327771   0.321234
    7  H  3  S   -0.327771  -0.321234

          ------------------------
          LOWDIN BOND ORDER MATRIX
          ------------------------

                      1          2          3          4          5

    1  O  1  S    0.998061
    2  O  1  S    0.000000   0.829899
    3  O  1  X    0.000000   0.000000   0.642467
    4  O  1  Y    0.000000   0.000000   0.000000   0.827582
    5  O  1  Z    0.000000   0.000000   0.000000   0.000000   0.000000
    6  H  2  S    0.000000   0.000000   0.000000   0.000000   0.000000
    7  H  3  S    0.000000   0.000000   0.000000   0.000000   0.000000

                      6          7

    6  H  2  S    0.350995
    7  H  3  S    0.000000   0.350995

          ---------------------------------------
          MULLIKEN AND LOWDIN POPULATION ANALYSES
          ---------------------------------------

     AO MULLIKEN POPULATIONS IN EACH MOLECULAR ORBITAL
        ALPHA ORBITALS

                      1          2          3          4          5

                  1.000000   1.000000   1.000000   1.000000   1.000000

    1             0.993843   0.004751   0.000000   0.000000   0.000408
    2             0.006869   0.860440   0.000000   0.000000   0.092785
    3             0.000000   0.000000   0.696784   0.000000   0.000000
    4             0.000006   0.036441   0.000000   0.000000   0.816921
    5             0.000000   0.000000   0.000000   1.000000   0.000000
    6            -0.000359   0.049184   0.151608   0.000000   0.044943
    7            -0.000359   0.049184   0.151608   0.000000   0.044943

     ATOMIC MULLIKEN POPULATION IN EACH MOLECULAR ORBITAL
        ALPHA ORBITALS

                      1          2          3          4          5

                  1.000000   1.000000   1.000000   1.000000   1.000000

    1             1.000718   0.901632   0.696784   1.000000   0.910113
    2            -0.000359   0.049184   0.151608   0.000000   0.044943
    3            -0.000359   0.049184   0.151608   0.000000   0.044943

     AO MULLIKEN POPULATIONS IN EACH MOLECULAR ORBITAL
         BETA ORBITALS

                      1          2          3          4

                  1.000000   1.000000   1.000000   1.000000

    1             0.994481   0.003919   0.000000   0.000508
    2             0.006158   0.784466   0.000000   0.126719
    3             0.000000   0.000000   0.643753   0.000000
    4             0.000005   0.043810   0.000000   0.787800
    5             0.000000   0.000000   0.000000   0.000000
    6            -0.000322   0.083903   0.178123   0.042486
    7            -0.000322   0.083903   0.178123   0.042486

     ATOMIC MULLIKEN POPULATION IN EACH MOLECULAR ORBITAL
         BETA ORBITALS

                      1          2          3          4

                  1.000000   1.000000   1.000000   1.000000

    1             1.000644   0.832195   0.643753   0.915027
    2            -0.000322   0.083903   0.178123   0.042486
    3            -0.000322   0.083903   0.178123   0.042486


          ******* ALPHA ELECTRONS ********

               ----- POPULATIONS IN EACH AO -----
                             MULLIKEN      LOWDIN
              1  O  1  S      0.99900     0.99850
              2  O  1  S      0.96009     0.86052
              3  O  1  X      0.69678     0.68748
              4  O  1  Y      0.85337     0.84546
              5  O  1  Z      1.00000     1.00000
              6  H  2  S      0.24538     0.30402
              7  H  3  S      0.24538     0.30402


          ******** BETA ELECTRONS ********

               ----- POPULATIONS IN EACH AO -----
                             MULLIKEN      LOWDIN
              1  O  1  S      0.99891     0.99806
              2  O  1  S      0.91734     0.82990
              3  O  1  X      0.64375     0.64247
              4  O  1  Y      0.83162     0.82758
              5  O  1  Z      0.00000     0.00000
              6  H  2  S      0.30419     0.35100
              7  H  3  S      0.30419     0.35100

     ----- AO SPIN POPULATIONS -----
                             MULLIKEN      LOWDIN
              1  O  1  S      0.00009     0.00044
              2  O  1  S      0.04275     0.03063
              3  O  1  X      0.05303     0.04502
              4  O  1  Y      0.02175     0.01788
              5  O  1  Z      1.00000     1.00000
              6  H  2  S     -0.05881    -0.04698
              7  H  3  S     -0.05881    -0.04698

     ATOMIC SPIN POPULATION (ALPHA MINUS BETA)
       ATOM         MULL.POP.                    LOW.POP.
    1 O             1.117628                     1.093956
    2 H            -0.058814                    -0.046978
    3 H            -0.058814                    -0.046978


          ********* ALL ELECTRONS ********

               ----- POPULATIONS IN EACH AO -----
                             MULLIKEN      LOWDIN
              1  O  1  S      1.99791     1.99656
              2  O  1  S      1.87744     1.69042
              3  O  1  X      1.34054     1.32995
              4  O  1  Y      1.68498     1.67304
              5  O  1  Z      1.00000     1.00000
              6  H  2  S      0.54957     0.65501
              7  H  3  S      0.54957     0.65501

          ----- MULLIKEN ATOMIC OVERLAP POPULATIONS -----
          (OFF-DIAGONAL ELEMENTS NEED TO BE MULTIPLIED BY 2)

             1           2           3

    1    7.3986397
    2    0.2511134   0.3324226
    3    0.2511134  -0.0339693   0.3324226

          TOTAL MULLIKEN AND LOWDIN ATOMIC POPULATIONS
       ATOM         MULL.POP.    CHARGE          LOW.POP.     CHARGE
    1 O             7.900866    0.099134         7.689976    0.310024
    2 H             0.549567    0.450433         0.655012    0.344988
    3 H             0.549567    0.450433         0.655012    0.344988

          -------------------------------
          BOND ORDER AND VALENCE ANALYSIS     BOND ORDER THRESHOLD=0.050
          -------------------------------

                   BOND                       BOND                       BOND
  ATOM PAIR DIST  ORDER      ATOM PAIR DIST  ORDER      ATOM PAIR DIST  ORDER
    1   2  0.957  0.782        1   3  0.957  0.782

                       TOTAL       BONDED        FREE
      ATOM            VALENCE     VALENCE     VALENCE
    1 O                 2.570       1.563       1.007
    2 H                 0.797       0.794       0.003
    3 H                 0.797       0.794       0.003

          -----------------------------------------
          ATOMIC SPIN DENSITY AT THE NUCLEUS (A.U.)
          -----------------------------------------
                            SPIN DENS    ALPHA DENS     BETA DENS
    1  O            8.0     0.1867283      96.81981      96.63308
    2  H            1.0    -0.0205474       0.11659       0.13713
    3  H            1.0    -0.0205474       0.11659       0.13713

          ---------------------
          ELECTROSTATIC MOMENTS
          ---------------------

 POINT   1           X           Y           Z (BOHR)    CHARGE
                 0.000000    0.000000    0.000000        1.00 (A.U.)
         DX          DY          DZ         /D/  (DEBYE)
    -0.000000    2.691933    0.000000    2.691933
 ...... END OF PROPERTY EVALUATION ......
 STEP CPU TIME =     0.01 TOTAL CPU TIME =        0.0 (    0.0 MIN)
 TOTAL WALL CLOCK TIME=        0.7 SECONDS, CPU UTILIZATION IS   6.94%
               580000  WORDS OF DYNAMIC MEMORY USED
 EXECUTION OF GAMESS TERMINATED NORMALLY Mon Sep 10 15:01:33 2012
 DDI: 263624 bytes (0.3 MB / 0 MWords) used by master data server.

 ----------------------------------------
 CPU timing information for all processes
 ========================================
 0: 0.37 + 0.21 = 0.58
 ----------------------------------------
 ddikick.x: exited gracefully.
----- accounting info -----
Files used on the master node kolmakov.sam.pitt.edu were:
-rw-r--r--  1 albert  staff      170 Sep 10 15:01 /Users/albert/Development/openqube/testfiles/water/uhf.F05
-rw-r--r--  1 albert  staff  1668720 Sep 10 15:01 /Users/albert/Development/openqube/testfiles/water/uhf.F10
-rw-r--r--  1 albert  staff  2992054 Sep  7 15:08 /Users/albert/Development/openqube/testfiles/water/uhf.cube
-rw-r--r--  1 albert  staff     2630 Sep 10 15:01 /Users/albert/Development/openqube/testfiles/water/uhf.dat
-rw-r--r--  1 albert  staff  2992050 Sep 10 13:32 /Users/albert/Development/openqube/testfiles/water/uhf.dens.cube
-rw-r--r--  1 albert  staff    31684 Sep 10 15:01 /Users/albert/Development/openqube/testfiles/water/uhf.gamess
-rw-r--r--  1 albert  staff      170 Sep 10 15:01 /Users/albert/Development/openqube/testfiles/water/uhf.inp
-rw-r--r--  1 albert  staff  2992050 Sep 10 13:33 /Users/albert/Development/openqube/testfiles/water/uhf.sdens.cube
Mon Sep 10 15:01:36 EDT 2012
0.125u 0.077s 0:04.14 4.5%	0+0k 6+11io 517pf+0w
