water                                                                   
SP        UHF                                                         STO-3G              
Number of atoms                            I                3
Charge                                     I                1
Multiplicity                               I                2
Number of electrons                        I                9
Number of alpha electrons                  I                5
Number of beta electrons                   I                4
Number of basis functions                  I                7
Number of independant functions            I                7
Number of point charges in /Mol/           I                0
Number of translation vectors              I                0
Info1-9                                    I   N=           9
          10          10           0           0           0         111
           1           1           2
Num ILSW                                   I              100
ILSW                                       I   N=         100
           1           0           0           0           2           0
           0           0           0           0           0     1000000
           0           0          -1           0           0           0
           0     1000000           1           0           0           0
           1           0           0           0     1000000           0
           0           0      100000           0          -1           0
           0           0           0           0           0           0
           0           0           0           1           0           0
           0           0           1     1000000     1000000           0
           0           0           0           0           0           0
           0           0           0           0           0           0
           0           0           0           0           0           0
           0           0           0           0           0           0
           0           0           0           0           0           0
           0           0           0           0           0           0
           0           0           0           0           0           0
           0           0           0           0
Number of contracted shells                I                4
Highest angular momentum                   I                1
Largest degree of contraction              I                3
Number of primitive shells                 I               12
Pure/Cartesian d shells                    I                0
Pure/Cartesian f shells                    I                0
Virial Ratio                               R      2.021889203113970E+00
SCF Energy                                 R     -7.465569685625651E+01
Total Energy                               R     -7.465569685625651E+01
S**2                                       R      7.551773210237180E-01
S**2 after annihilation                    R      7.500147185882911E-01
RMS Density                                R      2.060015148659481E-04
Atomic numbers                             I   N=           3
           8           1           1
Nuclear charges                            R   N=           3
  8.00000000E+00  1.00000000E+00  1.00000000E+00
Current cartesian coordinates              R   N=           9
  6.82492065E-34  1.22946840E-17  2.21481338E-01  0.00000000E+00  1.43023556E+00
 -8.85925352E-01 -1.75153340E-16 -1.43023556E+00 -8.85925352E-01
Int Atom Types                             I   N=           3
           0           0           0
Force Field                                I                0
MM charges                                 R   N=           3
  0.00000000E+00  0.00000000E+00  0.00000000E+00
Integer atomic weights                     I   N=           3
          16           1           1
Real atomic weights                        R   N=           3
  1.59949146E+01  1.00782504E+00  1.00782504E+00
Atom residue info                          I   N=           3
           0           0           0
Atom fragment info                         I   N=           3
           0           0           0
Atom residue num                           I   N=           3
           0           0           0
Nuclear spins                              I   N=           3
           0           1           1
Nuclear ZEff                               R   N=           3
 -5.60000000E+00 -1.00000000E+00 -1.00000000E+00
Nuclear QMom                               R   N=           3
  0.00000000E+00  0.00000000E+00  0.00000000E+00
Nuclear GFac                               R   N=           3
  0.00000000E+00  2.79284600E+00  2.79284600E+00
MicOpt                                     I   N=           3
          -1          -1          -1
Constraint Structure                       R   N=           9
  6.82492065E-34  1.22946840E-17  2.21481338E-01  0.00000000E+00  1.43023556E+00
 -8.85925352E-01 -1.75153340E-16 -1.43023556E+00 -8.85925352E-01
ONIOM Charges                              I   N=          16
           1           0           0           0           0           0
           0           0           0           0           0           0
           0           0           0           0
ONIOM Multiplicities                       I   N=          16
           2           0           0           0           0           0
           0           0           0           0           0           0
           0           0           0           0
Atom Layers                                I   N=           3
           1           1           1
Atom Modifiers                             I   N=           3
           0           0           0
Int Atom Modified Types                    I   N=           3
           0           0           0
Link Atoms                                 I   N=           3
           0           0           0
Atom Modified MM Charges                   R   N=           3
  0.00000000E+00  0.00000000E+00  0.00000000E+00
Link Distances                             R   N=          12
  0.00000000E+00  0.00000000E+00  0.00000000E+00  0.00000000E+00  0.00000000E+00
  0.00000000E+00  0.00000000E+00  0.00000000E+00  0.00000000E+00  0.00000000E+00
  0.00000000E+00  0.00000000E+00
MxBond                                     I                2
NBond                                      I   N=           3
           2           1           1
IBond                                      I   N=           6
           2           3           1           0           1           0
RBond                                      R   N=           6
  1.00000000E+00  1.00000000E+00  1.00000000E+00  0.00000000E+00  1.00000000E+00
  0.00000000E+00
Shell types                                I   N=           4
           0          -1           0           0
Number of primitives per shell             I   N=           4
           3           3           3           3
Shell to atom map                          I   N=           4
           1           1           2           3
Primitive exponents                        R   N=          12
  1.30709321E+02  2.38088661E+01  6.44360831E+00  5.03315132E+00  1.16959612E+00
  3.80388960E-01  3.42525091E+00  6.23913730E-01  1.68855404E-01  3.42525091E+00
  6.23913730E-01  1.68855404E-01
Contraction coefficients                   R   N=          12
  1.54328967E-01  5.35328142E-01  4.44634542E-01 -9.99672292E-02  3.99512826E-01
  7.00115469E-01  1.54328967E-01  5.35328142E-01  4.44634542E-01  1.54328967E-01
  5.35328142E-01  4.44634542E-01
P(S=P) Contraction coefficients            R   N=          12
  0.00000000E+00  0.00000000E+00  0.00000000E+00  1.55916275E-01  6.07683719E-01
  3.91957393E-01  0.00000000E+00  0.00000000E+00  0.00000000E+00  0.00000000E+00
  0.00000000E+00  0.00000000E+00
Coordinates of each shell                  R   N=          12
  6.82492065E-34  1.22946840E-17  2.21481338E-01  6.82492065E-34  1.22946840E-17
  2.21481338E-01  0.00000000E+00  1.43023556E+00 -8.85925352E-01 -1.75153340E-16
 -1.43023556E+00 -8.85925352E-01
Alpha Orbital Energies                     R   N=           7
 -2.10337900E+01 -1.92840660E+00 -1.20096566E+00 -1.11518040E+00 -1.06842151E+00
  8.59623855E-02  1.99854990E-01
Beta Orbital Energies                      R   N=           7
 -2.10029060E+01 -1.75832077E+00 -1.15865762E+00 -1.00894246E+00 -2.26973224E-01
  1.18297908E-01  2.20265055E-01
Alpha MO coefficients                      R   N=          49
  9.94075484E-01  2.67785480E-02  0.00000000E+00  0.00000000E+00 -4.26705936E-03
 -5.98312534E-03 -5.98312534E-03 -2.45328444E-01  9.15362201E-01  0.00000000E+00
  0.00000000E+00 -1.72830100E-01  8.62517338E-02  8.62517338E-02  0.00000000E+00
  0.00000000E+00  0.00000000E+00  7.41249808E-01  0.00000000E+00  3.21140108E-01
 -3.21140108E-01  0.00000000E+00  0.00000000E+00  1.00000000E+00  0.00000000E+00
  0.00000000E+00  0.00000000E+00  0.00000000E+00 -8.44187668E-02  4.20963333E-01
  0.00000000E+00  0.00000000E+00  8.58408097E-01 -1.86498912E-01 -1.86498912E-01
 -1.23111146E-01  8.66371845E-01  0.00000000E+00  0.00000000E+00 -6.36000261E-01
 -8.34028447E-01 -8.34028447E-01  0.00000000E+00  0.00000000E+00  0.00000000E+00
  8.94168071E-01  0.00000000E+00 -8.93502496E-01  8.93502496E-01
Beta MO coefficients                       R   N=          49
  9.94670828E-01  2.41885581E-02  0.00000000E+00  0.00000000E+00 -3.93989041E-03
 -5.42283589E-03 -5.42283589E-03 -2.32445550E-01  8.47734416E-01  0.00000000E+00
  0.00000000E+00 -1.80513211E-01  1.38443840E-01  1.38443840E-01  0.00000000E+00
  0.00000000E+00  0.00000000E+00  6.97611306E-01  0.00000000E+00  3.63529636E-01
 -3.63529636E-01 -9.72519652E-02  4.76463688E-01  0.00000000E+00  0.00000000E+00
  8.40540365E-01 -1.92985636E-01 -1.92985636E-01  0.00000000E+00  0.00000000E+00
  1.00000000E+00  0.00000000E+00  0.00000000E+00  0.00000000E+00  0.00000000E+00
 -1.33401884E-01  9.05626291E-01  0.00000000E+00  0.00000000E+00 -6.57374017E-01
 -8.25482220E-01 -8.25482220E-01  0.00000000E+00  0.00000000E+00  0.00000000E+00
  9.28615250E-01  0.00000000E+00 -8.77111101E-01  8.77111101E-01
Total SCF Density                          R   N=          28
  2.10835758E+00 -4.52811161E-01  1.96207155E+00  9.61559770E-34 -5.55168661E-33
  1.00000000E+00 -4.33048022E-18  2.50025738E-17 -6.16297582E-33  1.03611281E+00
 -7.80109965E-02  4.50406328E-01  3.00923862E-33  2.60762938E-17  1.50586156E+00
 -3.01700325E-02  2.55639435E-02  1.69481835E-32  4.91647427E-01 -3.62155335E-01
  3.33981328E-01 -3.01700325E-02  2.55639435E-02 -4.62223187E-33 -4.91647427E-01
 -3.62155335E-01 -1.36588201E-01  3.33981328E-01
Spin SCF Density                           R   N=          28
  2.63970832E-03 -1.41522224E-02  6.95588045E-02 -1.15817245E-34  5.46316658E-34
  1.00000000E+00  5.21594501E-19 -2.46039150E-18 -2.46519033E-32  6.27897430E-02
  9.39621120E-03 -4.43224729E-02  2.12296735E-32 -1.95096588E-18  2.76442661E-02
  7.44268514E-03 -2.49996357E-02 -1.54074396E-33 -1.55573408E-02  1.22082523E-02
 -4.32053835E-02  7.44268514E-03 -2.49996357E-02  1.54074396E-33  1.55573408E-02
  1.22082523E-02  1.48402708E-02 -4.32053835E-02
Cartesian Gradient                         R   N=           9
  0.00000000E+00  0.00000000E+00  0.00000000E+00  0.00000000E+00  0.00000000E+00
  0.00000000E+00  0.00000000E+00  0.00000000E+00  0.00000000E+00
Dipole Moment                              R   N=           3
 -8.40490547E-17  2.77555756E-16 -9.68943297E-01
Anisotropic Hyperfine tensors              R   N=          18
  2.72727915E+00 -6.19186608E-18 -1.29893761E+00 -4.83112221E-18 -3.46944695E-17
 -1.42834154E+00 -6.78486728E-02 -9.42846765E-19  7.89046573E-02  8.24491905E-20
 -1.72266747E-01 -1.10559846E-02 -6.78486728E-02  5.99607126E-18  7.89046573E-02
  4.49814042E-18  1.72266747E-01 -1.10559846E-02
Isotropic Hyperfine splittings             R   N=           3
  1.85512706E-01 -2.05492896E-02 -2.05492896E-02
QEq coupling tensors                       R   N=          18
 -8.61843241E-01  1.01817011E-16 -5.13666122E-01  7.46329749E-17  6.66133815E-16
  1.37550936E+00  2.42624673E-01  7.26743235E-19 -2.51186939E-01  2.18721680E-18
  3.59618596E-01  8.56226600E-03  2.42624673E-01 -9.01120882E-17 -2.51186939E-01
 -6.68058275E-17 -3.59618596E-01  8.56226600E-03
Mulliken Charges                           R   N=           3
  1.00570107E-01  4.49714947E-01  4.49714947E-01
